ITEM: TIMESTEP
0
ITEM: NUMBER OF ATOMS
1149
ITEM: BOX BOUNDS ff ff ff
-2.0000000000000000e+01 2.0000000000000000e+01
-2.0000000000000000e+01 2.0000000000000000e+01
-2.0000000000000000e+01 2.0000000000000000e+01
ITEM: ATOMS id type xs ys zs
1 1 0.611353 0.00267822 0.0128306
2 1 0.52692 0.0605502 0.0161642
3 1 0.0614385 0.0838238 0.026525
4 1 0.100928 0.101084 0.0245981
5 1 0.502065 0.0786795 0.0179365
6 1 0.368246 0.110193 0.00904333
7 1 0.424771 0.128817 0.0292212
8 1 0.169225 0.169692 0.0162222
9 1 0.568404 0.165051 0.00492214
10 1 0.812471 0.204439 0.0124769
11 1 0.169527 0.242103 0.0243979
12 1 0.623865 0.234086 0.00183227
13 1 0.971275 0.226335 0.00720117
14 1 0.015696 0.313346 0.035299
15 1 0.343017 0.29686 0.0212875
16 1 0.63576 0.286115 0.0243525
17 1 0.862472 0.292598 0.0305502
18 1 0.0331943 0.329306 0.00261505
20 1 0.06979 0.341466 0.012938
19 1 0.0916684 0.348546 0.0295059
21 1 0.893497 0.329781 0.00808818
22 1 0.158291 0.39906 0.000495144
23 2 0.449434 0.408103 0.0116848
24 1 0.776431 0.408009 0.0244059
25 2 0.398944 0.446319 0.00159022
26 1 0.162489 0.548861 0.0103953
27 1 0.200996 0.546161 0.0125322
28 1 0.872586 0.548225 0.0167816
29 1 0.10047 0.639286 0.0160397
30 2 0.301016 0.610796 0.0213941
31 2 0.363542 0.614677 0.0154064
32 2 0.651071 0.6229 0.0114192
33 1 0.0852129 0.661721 0.0243979
35 1 0.0949152 0.703816 0.0165488
36 1 0.347517 0.713394 0.00651793
34 2 0.628458 0.682338 0.0222643
37 1 0.0425869 0.758613 0.00403508
38 1 0.242152 0.8481 0.0135067
39 1 0.261851 0.936218 0.0168415
40 1 0.656272 0.956507 0.0190521
41 1 0.92955 0.94663 0.0158356
42 1 0.133336 0.978938 0.012794
43 1 0.70798 0.0132123 0.0584202
44 1 0.288217 0.0547425 0.0577959
45 1 0.0579175 0.104578 0.0462862
46 1 0.0814099 0.0801887 0.0455064
47 1 0.554299 0.10377 0.0628827
48 1 0.650152 0.112396 0.038719
49 1 0.362432 0.188676 0.066127
50 1 0.019292 0.240796 0.0663372
51 1 0.699136 0.235554 0.0656851
52 1 0.366543 0.285937 0.0433442
53 2 0.442459 0.30436 0.0683533
54 1 0.80273 0.353349 0.0705631
55 2 0.494263 0.407427 0.0599185
56 1 0.779999 0.405929 0.0528342
57 1 0.082968 0.442556 0.0380433
58 2 0.40879 0.443396 0.0645576
59 2 0.480207 0.474023 0.0559968
60 1 0.914409 0.466654 0.0479176
61 1 0.797571 0.553462 0.0658696
62 1 0.0443621 0.594517 0.0430525
63 1 0.808411 0.600641 0.0582436
64 1 0.991883 0.574644 0.0459824
65 2 0.701486 0.618561 0.0514379
66 1 0.261538 0.66425 0.0581436
67 1 0.3521 0.74279 0.0633815
68 1 0.0559068 0.81343 0.0582615
69 1 0.650549 0.80076 0.0533652
70 1 0.327115 0.823885 0.0409043
71 1 0.633478 0.839575 0.0537859
72 1 0.0897171 0.875471 0.0419115
73 1 0.94198 0.857682 0.053819
74 1 0.331587 0.978404 0.0367781
75 1 0.851915 0.0105135 0.0931747
76 1 0.894382 0.00264654 0.0881443
77 1 0.00750504 0.0968045 0.0909388
78 1 0.0222396 0.0731683 0.0942394
79 1 0.0928649 0.105459 0.0938602
80 1 0.115619 0.076321 0.0775635
81 1 0.241458 0.169451 0.0854703
124 1 0.224857 0.179046 0.106868
82 1 0.740172 0.203499 0.098785
83 1 0.898684 0.189925 0.0752379
84 1 0.333746 0.216165 0.0878801
85 1 0.86002 0.306527 0.0777369
86 1 0.751356 0.335149 0.0843779
87 1 0.787691 0.338324 0.0977662
88 1 0.986625 0.343677 0.0829361
89 1 0.254399 0.38626 0.0872969
90 2 0.301934 0.392069 0.0921994
91 2 0.446766 0.367421 0.0869078
92 2 0.596618 0.360403 0.0781683
93 1 0.983067 0.413523 0.0740395
94 1 0.168405 0.441788 0.10664
95 1 0.814095 0.494621 0.0974561
96 1 0.108676 0.519373 0.0952005
97 1 0.879195 0.589623 0.0757614
98 1 0.769625 0.616824 0.0885428
99 1 0.841272 0.61862 0.0723599
100 1 0.840712 0.644709 0.0911214
