LAMMPS data file via write_data, version 2 Aug 2023, timestep = 300000, units = lj

39 atoms
2 atom types

-20 20 xlo xhi
-20 20 ylo yhi
-20 20 zlo zhi

Masses

1 1
2 1

Pair Coeffs # lj/cut

1 1 1
2 0.5 3

Atoms # atomic

962 1 -7.664685781145178 7.434792538606091 18.586446299268086 0 0 0
731 1 -8.260114011079839 -16.36661048095232 -14.130308317904946 0 0 0
227 1 -5.170680262540869 -3.76040791839505 -14.099082794303362 0 0 0
957 1 -16.253959925128388 11.510842797084821 -14.03663946606831 0 0 0
784 1 -15.910727774225613 -4.3624486576353725 -13.476279292233786 0 0 0
262 1 11.683562741883335 16.91854958976719 -10.334967091384609 0 0 0
174 1 -5.478685710810662 -9.545411720793506 -7.6935117317593305 0 0 0
549 2 -16.01843632614085 13.168576536062284 -8.99665267194889 0 0 0
312 1 13.440292819155879 -11.160365027202703 -8.693278888684565 0 0 0
598 1 9.896511319747942 -1.600195315967342 -5.096130707350137 0 0 0
637 2 -7.75299814821513 4.89873830931097 -7.103753465459354 0 0 0
645 1 4.695398971156055 14.873352478911816 -5.742999193703906 0 0 0
589 2 15.996119762518274 -2.1792079853868334 -6.548976480385102 0 0 0
347 1 -9.99035261807005 3.71315648312806 -2.5576355659089027 0 0 0
900 2 4.162191588288176 -8.126117093794758 -0.5968256220790967 0 0 0
961 1 11.820679108868035 0.7362527184332451 -2.272261278571218 0 0 0
172 1 13.081441924125441 -10.516753198905386 1.866197996235296 0 0 0
304 2 12.553509058981115 -2.6860691065640374 0.5406641545164984 0 0 0
908 1 -0.27410764505725677 4.770138498655394 2.2980863934537616 0 0 0
500 1 -9.714774010882989 1.9982194948310468 2.4696022313189614 0 0 0
772 2 7.162158972959202 3.1099347474253802 1.6913132318755801 0 0 0
547 2 -14.334220019218595 5.271134139383675 1.9685647766349634 0 0 0
946 2 -12.964804585921236 -4.2282156175246834 6.821143211246306 0 0 0
763 1 13.899472526630163 -2.0834036703819954 8.6533282644049 0 0 0
789 1 -1.6350423255153108 2.4380863921542115 8.50755084812424 0 0 0
759 1 -8.882073821687134 10.788075908364121 6.621445763670418 0 0 0
210 1 -1.2843651894051513 12.67040437038911 7.067923929878614 0 0 0
219 1 -13.688404247044994 14.929063164812922 8.137273580825708 0 0 0
462 2 11.152791483763563 -8.54751646477191 10.07852615750633 0 0 0
1003 1 7.807298800110295 -0.0309963299356213 10.698211107375334 0 0 0
291 1 6.129553322813509 2.275463440182152 10.147910371367093 0 0 0
583 1 -2.4377416489403863 11.195093870078713 10.21415728392973 0 0 0
710 2 4.072303200056032 -13.600331782328663 10.865092472714785 0 0 0
374 2 -1.4110848491120873 -5.6003004872108555 12.017623212083777 0 0 0
525 1 6.181241376698707 7.335434072058442 11.487538406515618 0 0 0
987 2 -1.3158258566009253 -12.454327905676372 11.151318847720502 0 0 0
992 1 -4.143267365938822 1.9928494430338148 11.390491302864755 0 0 0
816 1 -4.750676036613713 -10.155333819423406 14.08809971376368 0 0 0
499 1 7.2038684474233845 0.062086349662016815 13.273236275685182 0 0 0

Velocities

962 0.3792137897373671 -0.7727546022607965 -0.36842570810364866
731 -0.8691097674180419 -0.3852356753138481 0.8306573207896
227 -0.710200218340155 0.06488600323948586 -0.29422323671851025
957 -2.241280438277484 2.3486382911066275 -0.5642676002979399
784 1.3543358544789146 -0.6179595173742896 0.2848448415473254
262 0.650036456413107 -1.5020059955672236 1.215142223383431
174 0.13799688902489154 -0.5408592784592102 1.383917991459924
549 0.15109487893649906 -0.46320389913205934 -0.2826751283953669
312 -1.8158460549045914 0.5276854604710135 -0.1923216725123447
598 -0.05709589482190403 -0.20874584448862676 0.05253441542387071
637 -1.8018989597030208 -0.3317760404647281 1.2082038797854004
645 0.8351398253598087 -0.5784006820482274 1.8414889647840453
589 0.780741131447141 0.6710972430798361 -0.1346785312480522
347 -1.7092119435719677 0.6938626529851695 1.0739038119435884
900 0.4773789410819828 -1.6367741741771669 -0.4576120983840079
961 0.6692163641700319 1.8449009020778018 -0.16190107999499972
172 -0.2519470130361437 -0.42560492610533396 0.07514366341909803
304 0.047123381418377706 0.7196662886012403 0.7009693911430448
908 0.1097917540893343 -0.34022104934688746 -0.38597368971978313
500 0.09900209883986462 -0.6974777328578681 -0.3078243446784549
772 0.8152650482023373 -0.08262070552092579 0.8831623857871442
547 -0.5400009376577782 0.5969992926216842 0.8695739212952052
946 -0.38204313734953643 1.4141591863762346 -1.1111286953520823
763 2.0519548745143172 0.6550132160637386 1.3222555208975377
789 -0.7433122523859563 -0.8143186540584203 -1.4072420518515436
759 1.445697150067613 -1.389568162831956 -1.4572181292403577
210 3.122559867919845 0.6022780103213817 -1.3327838774271066
219 -0.1089578072657987 -0.47776094144487835 -0.6818784389255962
462 -0.7718598033322192 0.07014164548106529 0.22846662847876228
1003 0.9112736251845117 0.6720278141422035 0.4082341668561253
291 0.10529238279653098 -0.08724058335613197 0.8585851190795902
583 -0.5081447982410618 1.9657314412034959 -0.47259883774838907
710 0.8836641892933451 -0.2820779725788501 -1.1333654760608636
374 -0.8908902004417993 -0.5554927383058402 -0.4408363424566025
525 0.06803572562755798 0.5170053618156014 -0.5078926943294017
987 -0.7611159497303759 -0.4569928306690474 -1.5385695817652878
992 0.3713740437075133 -0.29455418747136686 0.7966615396548916
816 -1.1159914757658296 0.05120421908491846 -0.8237966431757903
499 -0.18728162168811674 -0.4736508359745432 0.02346807482227518
