

34 atoms
34 bonds
51 angles
83 dihedrals
39 impropers

18 atom types
18 bond types
25 angle types
31 dihedral types
9 improper types

0.000000 10.000000 xlo xhi
0.000000 10.000000 ylo yhi
0.000000 10.000000 zlo zhi

Masses

 1 12.0100000 # C
 2 12.0100000 # LC
 3 12.0100000 # BC
 4 16.0000000 # CO
 5 1.0080000 # BH
 6 14.0100000 # LN
 7 14.0100000 # N
 8 1.0080000 # AH
 9 12.0100000 # HC
 10 1.0080000 # HH
 11 16.0000000 # OO
 12 16.0000000 # OOL
 13 1.0080000 # HP
 14 1.0080000 # HPL
 15 16.000000 # TO
 16 1.0080000 # TH
 17 12.010000 # GC
 18 35.4500000 # CL

Pair Coeffs

 1 0.08600 3.399670 # C
 2 0.08600 3.399670 # LC
 3 0.08600 3.399670 # BC
 4 0.21000 2.959900 # CO
 5 0.01500 2.599600 # BH
 6 0.17000 3.250000 # LN
 7 0.17000 3.250000 # N
 8 0.01570 1.069100 # AH
 9 0.10940 3.399670 # HC
 10 0.01569 2.649544 # HH
 11 0.21000 2.959900 # OO
 12 0.21000 2.959900 # OOL
 13 0.01500 2.599600 # HP
 14 0.01500 2.599600 # HPL
 15 0.15210 3.157000 # TO
 16 0.01500 2.058000 # TH
 17 0.06844 3.40700 # GC
 18 0.26500 3.4709414 # CL

Bond Coeffs

 1 4.61100000e+02 1.39840000e+00 # BC,BC
 2 3.45800000e+02 1.08600000e+00 # BC,BH
 3 3.45900000e+02 1.49060000e+00 # BC,C
 4 3.45900000e+02 1.49060000e+00 # BC,LC
 5 6.37700000e+02 1.21830000e+00 # C,CO
 6 6.37700000e+02 1.21830000e+00 # LC,CO
 7 4.17900000e+02 1.38590000e+00 # BC,N
 8 4.17900000e+02 1.38590000e+00 # BC,LN
 9 4.04600000e+02 1.01210000e+00 # AH,N
 10 4.04600000e+02 1.01210000e+00 # AH,LN
 11 3.00900000e+02 1.53750000e+00 # HC,HC
 12 3.30600000e+02 1.09690000e+00 # HC,HH
 13 4.27600000e+02 1.37900000e+00 # LN,LC
 14 4.00100000e+02 1.35130000e+00 # LC,OOL
 15 3.71400000e+02 9.73000000e-01 # OOL,HPL
 16 3.71400000e+02 9.73000000e-01 # OO,HPL
 17 4.50000000e+02 9.57200000e-01 # TO,TH
 18 2.67400000e+02 1.80290000e+00 # C,CL

Angle Coeffs

 1 6.66000000e+01 1.20020052e+02 # BC,BC,BC
 2 6.43000000e+01 1.20330052e+02 # C,BC,BC
 3 6.43000000e+01 1.20330052e+02 # LC,BC,BC
 4 4.82000000e+01 1.19880051e+02 # BC,BC,BH
 5 6.87000000e+01 1.22600053e+02 # BC,LC,CO
 6 6.87000000e+01 1.22600053e+02 # BC,C,CO
 7 6.83000000e+01 1.20950052e+02 # BC,BC,LN
 8 6.83000000e+01 1.20950052e+02 # BC,BC,N
 9 4.84000000e+01 1.16070050e+02 # BC,LN,AH
 10 4.84000000e+01 1.16070050e+02 # BC,N,AH
 11 6.38000000e+01 1.23710053e+02 # LC,LN,BC
 12 4.83000000e+01 1.17550051e+02 # LC,LN,AH
 13 6.77000000e+01 1.15250050e+02 # BC,LC,LN
 14 7.42000000e+01 1.23050053e+02 # LN,LC,CO
 15 6.29000000e+01 1.11510048e+02 # HC,HC,HC
 16 4.63000000e+01 1.09800047e+02 # HC,HC,HH
 17 3.94000000e+01 1.07580046e+02 # HH,HC,HH
 18 6.92000000e+01 1.13450049e+02 # BC,LC,OOL
 19 4.99000000e+01 1.06550046e+02 # LC,OOL,HPL
 20 7.59000000e+01 1.22100052e+02 # CO,LC,OOL
 21 4.01000000e+01 1.15120050e+02 # AH,LN,AH
 22 5.50000000e+01 1.04520000e+02 # TH,TO,TH
 23 6.11110000e+01 1.14705049e+02 # BC,C,CL
 24 5.88000000e+01 1.20690052e+02 # CO,C,CL
 25 4.01000000e+01 1.15120050e+02 # AH,N,AH

Dihedral Coeffs

 1 3.62500000e+00 2 180 0.5 # BC,BC,BC,BC
 2 3.62500000e+00 2 180 0 # BC,BC,BC,BH
 3 3.62500000e+00 2 180 0 # BC,BC,BC,N
 4 3.62500000e+00 2 180 0 # BC,BC,BC,LN
 5 4.50000000e-01 2 180 0 # BC,BC,LN,AH
 6 4.50000000e-01 2 180 0 # BC,BC,N,AH
 7 3.62500000e+00 2 180 0 # BH,BC,BC,BH
 8 3.62500000e+00 2 180 0 # BH,BC,BC,LN
 9 3.62500000e+00 2 180 0 # BH,BC,BC,N
 10 3.62500000e+00 2 180 0 # LC,BC,BC,BC
 11 3.62500000e+00 2 180 0 # C,BC,BC,BC
 12 3.62500000e+00 2 180 0 # LC,BC,BC,BH
 13 3.62500000e+00 2 180 0 # C,BC,BC,BH
 14 1.05000000e+00 2 180 0 # BC,BC,LC,CO
 15 1.05000000e+00 2 180 0 # BC,BC,C,CO
 16 4.50000000e-01 2 180 0 # LC,LN,BC,BC
 17 2.30000000e+00 2 180 0 # BC,LC,LN,BC
 18 2.30000000e+00 2 180 0 # BC,LC,LN,AH
 19 1.05000000e+00 2 180 0 # BC,BC,LC,LN
 20 2.30000000e+00 2 180 0 # BC,LN,LC,CO
 21 2.30000000e+00 2 180 0 # AH,LN,LC,CO
 22 1.00000000e+00 2 180 0 # BC,BC,LC,OOL
 23 2.30000000e+00 2 180 0 # BC,LC,OOLL,HPL
 24 2.30000000e+00 2 180 0 # CO,LC,OOLL,HPL
 25 2.50000000e-01 2 180 0 # HC,HC,HC,HC
 26 2.00000000e-01 1 180 0 # HC,HC,HC,HC
 27 1.80000000e-01 3 180 0 # HC,HC,HC,HC
 28 1.60000000e-01 3 0 0 # HC,HC,HC,HH
 29 1.50000000e-01 3 0 0 # HH,HC,HC,HH
 30 1.05000000e+01 2 180 0 # BC,CL,C,CO
 31 1.00000000e+00 2 180 0 # BC,BC,C,CL

Improper Coeffs

 1 1.1 180 # BC,BC,BC,BH
 2 1.1 180 # BC,BC,BC,N
 3 1.1 180 # BC,BC,BC,LN
 4 1.1 180 # LC,BC,BC,BC
 5 1.1 180 # C,BC,BC,BC
 6 1.1 180 # LC,BC,LN,AH
 7 10.5 180 # BC,LN,LC,CO
 8 1.1 180 # OOL,LC,BC,CO
 9 1.1 180 # AH,N,BC,AH

Atoms

 1 1 3 -0.0200000 2.00830974154978 2.06162361126069 8.38160029549906
 2 1 3 -0.0200000 1.19542977820586 2.57234873210676 7.37143346960803
 3 1 3 0.17110000 2.61348590006862 2.92577511872481 9.29354601170582
 4 1 3 -0.0200000 2.40387147723119 4.30217914282599 9.19267601529154
 5 1 5 0.13100000 2.1672904872773 0.988116753294774 8.45316948152249
 6 1 3 0.17110000 1.59062321317786 4.81373867434203 8.18023584089637
 7 1 7 -0.82320000 1.38575547684177 6.15949832957643 8.08054551562896
 8 1 8 0.20580000 0.947391884465802 6.52620191863428 7.24232428072059
 9 1 7 -0.82320000 3.40895417952389 2.42488284684239 10.2841898166877
 10 1 8 0.20580000 3.40450964374096 1.42565231820928 10.455684996647
 11 1 5 0.13100000 2.87541301142331 4.97635708920401 9.90346549055778
 12 1 3 -0.0200000 0.985702566347998 3.94665044197262 7.26981011173147
 13 1 5 0.13100000 0.349311768318672 4.33725812649376 6.47948271819342
 14 1 5 0.16800000 0.723888244013741 1.89817078572874 6.66064399434179
 15 1 8 0.20580000 1.9689545897012 6.78356738702556 8.62640869106263
 16 1 8 0.20580000 3.69055888876351 3.03869672803484 11.0405444339074
 17 2 3 -0.0200000 6.26857021611521 1.76083364521288 3.58981201709437
 18 2 3 -0.1500000 6.76566342014953 2.41182490489346 2.4569264419711
 19 2 3 -0.0200000 6.93465554339581 1.68412171169974 1.27598583173857
 20 2 3 -0.1500000 6.61389400160669 0.325693115985134 1.21691144089196
 21 2 3 -0.0200000 6.11840676965292 -0.305527736483044 2.36109090163234
 22 2 3 -0.1500000 5.94230918219049 0.402881117526382 3.55308777044155
 23 2 1 0.64020000 5.40731504520982 -0.301768716519537 4.76731999072536
 24 2 1 0.64020000 6.80527182119079 -0.431282945069534 -0.0670242168266793
 25 2 1 0.64020000 7.10904566276333 3.87247928201865 2.5265929765666
 26 2 4 -0.5066000 5.11927698814584 -1.48215687021755 4.74539091659539
 27 2 4 -0.5066000 7.23545946767012 0.108283354887799 -1.066796589303
 28 2 4 -0.5066000 6.96568533222952 4.51356698999544 3.54897517824574
 29 2 5 0.15000000 6.13817677020938 2.32654817229581 4.50898209010162
 30 2 5 0.15000000 7.31977035754453 2.17481199859592 0.385536719060626
 31 2 5 0.15000000 5.86368540141003 -1.36193255046215 2.33236994130304
 32 2 18 -0.11360000 5.1727170043627 0.567705075658703 6.29034825177172
 33 2 18 -0.11360000 6.40843095815996 -2.15246405183716 -0.17409394707337
 34 2 18 -0.11360000 7.74076415969354 4.72415568318037 1.10967482496416

Bonds

 1 1 1 2
 2 1 1 3
 3 2 1 5
 4 1 2 12
 5 2 2 14
 6 1 3 4
 7 7 3 9
 8 1 4 6
 9 2 4 11
 10 7 6 7
 11 1 6 12
 12 9 7 8
 13 9 9 10
 14 2 12 13
 15 9 7 15
 16 9 9 16
 17 1 17 18
 18 1 17 22
 19 2 17 29
 20 1 18 19
 21 3 18 25
 22 1 19 20
 23 2 19 30
 24 1 20 21
 25 3 20 24
 26 1 21 22
 27 2 21 31
 28 3 22 23
 29 5 23 26
 30 5 24 27
 31 5 25 28
 32 14 23 32
 33 16 24 33
 34 18 25 34

Angles

 1 1 1 2 12
 2 4 1 2 14
 3 1 1 3 4
 4 8 1 3 9
 5 1 2 1 3
 6 4 2 1 5
 7 1 2 12 6
 8 4 2 12 13
 9 4 3 1 5
 10 1 3 4 6
 11 4 3 4 11
 12 10 3 9 10
 13 8 4 3 9
 14 8 4 6 7
 15 1 4 6 12
 16 4 6 4 11
 17 10 6 7 8
 18 4 6 12 13
 19 8 7 6 12
 20 4 12 2 14
 21 10 3 9 16
 22 10 6 7 15
 23 25 8 7 15
 24 25 10 9 16
 25 1 17 18 19
 26 2 17 18 25
 27 1 17 22 21
 28 2 17 22 23
 29 1 18 17 22
 30 4 18 17 29
 31 1 18 19 20
 32 4 18 19 30
 33 6 18 25 28
 34 2 19 18 25
 35 1 19 20 21
 36 2 19 20 24
 37 4 20 19 30
 38 1 20 21 22
 39 4 20 21 31
 40 6 20 24 27
 41 2 21 20 24
 42 2 21 22 23
 43 4 22 17 29
 44 4 22 21 31
 45 6 22 23 26
 46 23 18 25 34
 47 23 20 24 33
 48 23 22 23 32
 49 24 26 23 32
 50 24 27 24 33
 51 24 28 25 34

Dihedrals

 1 2 1 2 12 6
 2 2 1 2 12 13
 3 1 1 3 4 6
 4 2 1 3 4 11
 5 6 1 3 9 10
 6 3 1 4 3 9
 7 2 1 12 2 14
 8 1 2 1 3 4
 9 3 2 1 3 9
 10 2 2 6 12 13
 11 1 2 12 6 4
 12 3 2 12 6 7
 13 1 3 1 2 12
 14 2 3 1 2 14
 15 3 3 4 6 7
 16 1 3 4 6 12
 17 2 3 6 4 11
 18 6 4 3 9 10
 19 6 4 6 7 8
 20 2 4 6 12 13
 21 3 4 12 6 7
 22 2 5 1 2 12
 23 7 5 1 2 14
 24 2 5 1 3 2
 25 2 5 1 3 4
 26 9 5 1 3 9
 27 3 6 4 3 9
 28 2 6 12 2 14
 29 9 7 6 4 11
 30 9 7 6 12 13
 31 6 8 7 6 12
 32 9 9 3 4 11
 33 2 11 4 6 12
 34 7 13 12 2 14
 35 6 1 3 9 16
 36 6 4 3 9 16
 37 6 4 6 7 15
 38 6 12 6 7 15
 39 1 17 18 19 20
 40 2 17 18 19 30
 41 15 17 18 25 28
 42 1 17 22 21 20
 43 2 17 22 21 31
 44 15 17 22 23 26
 45 1 18 17 22 21
 46 11 18 17 22 23
 47 1 18 19 20 21
 48 11 18 19 20 24
 49 2 18 20 19 30
 50 15 19 18 25 28
 51 1 19 20 21 22
 52 2 19 20 21 31
 53 15 19 20 24 27
 54 11 20 19 18 25
 55 11 20 21 22 23
 56 2 20 22 21 31
 57 2 21 20 19 30
 58 15 21 20 24 27
 59 15 21 22 23 26
 60 1 22 17 18 19
 61 11 22 17 18 25
 62 11 22 21 20 24
 63 11 23 17 22 21
 64 13 23 22 21 31
 65 11 24 19 20 21
 66 13 24 20 19 30
 67 13 24 20 21 31
 68 11 25 17 18 19
 69 13 25 18 19 30
 70 2 29 17 18 19
 71 13 29 17 18 25
 72 2 29 17 22 18
 73 2 29 17 22 21
 74 13 29 17 22 23
 75 31 17 18 25 34
 76 31 17 22 23 32
 77 31 19 18 25 34
 78 31 19 20 24 33
 79 31 21 20 24 33
 80 31 21 22 23 32
 81 30 18 34 25 28
 82 30 20 33 24 27
 83 30 22 32 23 26

Impropers

 1 1 1 2 12 6
 2 1 1 2 12 13
 3 1 1 3 4 11
 4 1 1 12 2 14
 5 1 2 6 12 13
 6 1 3 1 2 14
 7 1 3 6 4 11
 8 1 4 6 12 13
 9 1 6 12 2 14
 10 1 5 1 2 12
 11 1 5 1 3 2
 12 1 5 1 3 4
 13 1 11 4 6 12
 14 2 1 4 3 9
 15 2 2 1 3 9
 16 2 2 12 6 7
 17 2 3 4 6 7
 18 2 4 12 6 7
 19 2 6 4 3 9
 20 9 3 10 9 16
 21 9 6 8 7 15
 22 1 17 18 19 30
 23 1 17 22 21 31
 24 1 18 20 19 30
 25 1 19 20 21 31
 26 1 20 22 21 31
 27 1 21 20 19 30
 28 1 29 17 18 19
 29 1 29 17 22 18
 30 1 29 17 22 21
 31 5 18 17 22 23
 32 5 18 19 20 24
 33 5 20 19 18 25
 34 5 20 21 22 23
 35 5 22 17 18 25
 36 5 22 21 20 24
 37 5 23 17 22 21
 38 5 24 19 20 21
 39 5 25 17 18 19

