LAMMPS data file via write_data, version 3 Mar 2020, timestep = 133

32 atoms
18 atom types
33 bonds
18 bond types
51 angles
25 angle types
83 dihedrals
31 dihedral types
36 impropers
9 improper types

0.0000000000000000e+00 1.0000000000000000e+01 xlo xhi
0.0000000000000000e+00 1.0000000000000000e+01 ylo yhi
0.0000000000000000e+00 1.0000000000000000e+01 zlo zhi

Masses

1 12.01
2 12.01
3 12.01
4 16
5 1.008
6 14.01
7 14.01
8 1.008
9 12.01
10 1.008
11 16
12 16
13 1.008
14 1.008
15 16
16 1.008
17 12.01
18 35.45

Pair Coeffs # lj/charmm/coul/long

1 0.086 3.39967 0.086 3.39967
2 0.086 3.39967 0.086 3.39967
3 0.086 3.39967 0.086 3.39967
4 0.21 2.9599 0.21 2.9599
5 0.015 2.5996 0.015 2.5996
6 0.17 3.25 0.17 3.25
7 0.17 3.25 0.17 3.25
8 0.0157 1.0691 0.0157 1.0691
9 0.1094 3.39967 0.1094 3.39967
10 0.01569 2.64954 0.01569 2.64954
11 0.21 2.9599 0.21 2.9599
12 0.21 2.9599 0.21 2.9599
13 0.015 2.5996 0.015 2.5996
14 0.015 2.5996 0.015 2.5996
15 0.1521 3.157 0.1521 3.157
16 0.015 2.058 0.015 2.058
17 0.06844 3.407 0.06844 3.407
18 0.265 3.47094 0.265 3.47094

Bond Coeffs # harmonic

1 461.1 1.3984
2 345.8 1.086
3 345.9 1.4906
4 345.9 1.4906
5 637.7 1.2183
6 637.7 1.2183
7 417.9 1.3859
8 417.9 1.3859
9 404.6 1.0121
10 404.6 1.0121
11 300.9 1.5375
12 330.6 1.0969
13 427.6 1.379
14 400.1 1.3513
15 371.4 0.973
16 371.4 0.973
17 450 0.9572
18 267.4 1.8029

Angle Coeffs # harmonic

1 66.6 120.02
2 64.3 120.33
3 64.3 120.33
4 48.2 119.88
5 68.7 122.6
6 68.7 122.6
7 68.3 120.95
8 68.3 120.95
9 48.4 116.07
10 48.4 116.07
11 63.8 123.71
12 48.3 117.55
13 67.7 115.25
14 74.2 123.05
15 62.9 111.51
16 46.3 109.8
17 39.4 107.58
18 69.2 113.45
19 49.9 106.55
20 75.9 122.1
21 40.1 115.12
22 55 104.52
23 61.111 114.705
24 58.8 120.69
25 40.1 115.12

Dihedral Coeffs # charmm

1 3.625 2 180 0.5
2 3.625 2 180 0
3 3.625 2 180 0
4 3.625 2 180 0
5 0.45 2 180 0
6 0.45 2 180 0
7 3.625 2 180 0
8 3.625 2 180 0
9 3.625 2 180 0
10 3.625 2 180 0
11 3.625 2 180 0
12 3.625 2 180 0
13 3.625 2 180 0
14 1.05 2 180 0
15 1.05 2 180 0
16 0.45 2 180 0
17 2.3 2 180 0
18 2.3 2 180 0
19 1.05 2 180 0
20 2.3 2 180 0
21 2.3 2 180 0
22 1 2 180 0
23 2.3 2 180 0
24 2.3 2 180 0
25 0.25 2 180 0
26 0.2 1 180 0
27 0.18 3 180 0
28 0.16 3 0 0
29 0.15 3 0 0
30 10.5 2 180 0
31 1 2 180 0

Improper Coeffs # harmonic

1 1.1 180
2 1.1 180
3 1.1 180
4 1.1 180
5 1.1 180
6 1.1 180
7 10.5 180
8 1.1 180
9 1.1 180

Atoms # full

1 2 5 1.4999999999999999e-01 7.1547870323282483e+00 2.3504960384880791e+00 3.7154057834090093e-01 0 0 0
2 1 8 2.3105000000000001e-01 4.0156804231875887e+00 2.4269674046590533e+00 8.5029829993438688e-01 0 0 1
3 2 18 -1.1360000000000001e-01 7.8148911349091943e+00 4.5987684521991179e+00 1.0687831441026365e+00 0 0 0
4 2 3 -2.0000000000000000e-02 6.6010634387021438e+00 1.7470142323125470e+00 3.7437903533936225e+00 0 0 0
5 2 3 -1.4999999999999999e-01 7.0243221525958379e+00 2.4374386583284395e+00 2.5839143382340253e+00 0 0 0
6 2 3 -2.0000000000000000e-02 6.8389458507244711e+00 1.8813784453208318e+00 1.2900847513641172e+00 0 0 0
7 2 3 -1.4999999999999999e-01 5.9200823712136561e+00 8.4876595074596473e-01 1.1071281644377047e+00 0 0 0
8 2 3 -1.4999999999999999e-01 5.9523288082732639e+00 4.7582026597534327e-01 3.5874626343242393e+00 0 0 0
9 2 1 6.4019999999999999e-01 7.2967516128770686e+00 3.9122276464535135e+00 2.6511226234258687e+00 0 0 0
10 2 4 -5.0660000000000005e-01 6.9364720951804166e+00 4.6346667635935965e+00 3.5676828921892443e+00 0 0 0
11 2 5 1.4999999999999999e-01 6.7741711785794347e+00 2.2107632109138797e+00 4.7068470997909317e+00 0 0 0
12 2 3 -2.0000000000000000e-02 5.5161272213970962e+00 1.1432909357971632e-01 2.2696143865900567e+00 0 0 0
13 1 7 -3.9837499999999998e-01 4.0824452979546226e+00 1.8600579536373529e+00 1.0890804815584770e-02 0 0 1
14 1 3 -2.0000000000000000e-02 2.7037742264171425e+00 1.4224064002000520e+00 8.0985710617134181e+00 0 0 0
15 1 3 -2.0000000000000000e-02 1.5042591828916951e+00 2.0327156582784691e+00 7.7846145465082950e+00 0 0 0
16 1 3 1.7110000000000000e-01 3.5870643289051851e+00 2.2634525782228989e+00 8.8544937336200782e+00 0 0 0
17 1 3 -2.0000000000000000e-02 3.5883155294649187e+00 3.6476204236798160e+00 8.9245229235774719e+00 0 0 0
18 1 5 1.3100000000000001e-01 2.7890224784179081e+00 3.3416840507355777e-01 8.0612340197223116e+00 0 0 0
19 1 3 1.7110000000000000e-01 2.4120903536756551e+00 4.2134664323375945e+00 8.5337328815437061e+00 0 0 0
20 1 5 1.3100000000000001e-01 4.3290757171178464e+00 4.2232501147095034e+00 9.4763796898770618e+00 0 0 0
21 1 3 -2.0000000000000000e-02 1.4280676399330747e+00 3.4151815424802003e+00 7.9477999094204481e+00 0 0 0
22 1 5 1.3100000000000001e-01 5.1366548124577827e-01 3.9011515054574919e+00 7.6405208930674284e+00 0 0 0
23 1 5 1.6800000000000001e-01 6.6131497405494266e-01 1.4367061693153640e+00 7.4444866867985811e+00 0 0 0
24 2 18 -1.1360000000000001e-01 5.2019417712732947e+00 3.8557401153339710e-01 5.8971221293582490e+00 0 0 0
25 2 1 7.4342500000000000e-01 5.0418973179057334e+00 9.8863551154912932e-01 9.8576192485317407e+00 0 0 -1
26 2 4 -5.7609999999999995e-01 5.1959133050276298e+00 7.8590146183417242e-01 8.6551501944557963e+00 0 0 -1
27 2 5 1.4999999999999999e-01 4.8515768868139393e+00 9.2629196203991722e+00 2.1552734753482641e+00 0 -1 0
28 2 1 6.4019999999999999e-01 5.5384688830755815e+00 9.6526583871428837e+00 4.8084184800398759e+00 0 -1 0
29 2 4 -5.0660000000000005e-01 5.3802151044367070e+00 8.4415666131663833e+00 4.8246118526320201e+00 0 -1 0
30 1 7 -8.2320000000000004e-01 2.0730844577232634e+00 5.5049553421063715e+00 8.8884785129623403e+00 0 0 0
31 1 8 2.0580000000000001e-01 1.2201152384845020e+00 5.8975931932511960e+00 8.5358217899888231e+00 0 0 0
32 1 8 2.0580000000000001e-01 2.7984478755829998e+00 6.1976660294062764e+00 9.1249038339768713e+00 0 0 0

Velocities

1 -1.4636503587896265e-02 5.4233021197666528e-03 -5.9800523519281468e-03
2 -1.1788722852278548e-02 4.5957587108576697e-03 1.5471283056423518e-03
3 1.9593267629199173e-03 2.4610013024364526e-03 1.9940744276976791e-03
4 1.7513578894567748e-02 -5.8020387477439603e-03 1.1108136094497058e-03
5 6.1855320064500223e-04 4.2268009976095680e-03 -3.1256700574377821e-04
6 -1.3264862030258806e-02 7.5734781760617891e-03 -3.6769274595458835e-03
7 -8.1892377900420216e-03 -1.6337646397053239e-04 -6.5938564509517936e-03
8 -7.5158265817163597e-03 5.1455186404376768e-03 -3.1850579271582320e-03
9 6.8492354408856999e-03 3.0420614793748280e-03 7.8701312096810944e-03
10 9.1496530800046346e-04 6.6377033945447068e-03 7.9613200465559752e-03
11 3.5124432862772365e-02 -2.0609802323828835e-02 -9.9596231745679008e-03
12 -2.3142160068533441e-02 1.6906188818643454e-02 5.9628661108218791e-04
13 -1.0989134041373340e-02 3.4909269561867341e-04 5.0859607186976765e-03
14 1.6281509617858198e-02 -7.1445044669208330e-03 -2.1241563273001417e-03
15 1.0971344438311437e-02 -1.5953244567540350e-02 4.3427842498798899e-03
16 9.1569688050254540e-03 -3.7661064066874727e-03 4.8113341434012961e-04
17 2.0794162750571884e-02 -3.6969262618380618e-03 -1.5369682330749439e-02
18 2.6464573232916278e-02 -7.0117929109019227e-03 4.7486440046104273e-03
19 1.1243308903076779e-02 -1.2270801185383526e-02 -5.0882522596204004e-03
20 2.4643819321069085e-02 -7.6990700449583909e-03 -1.4937568204546807e-02
21 -2.2215130317895684e-03 -1.5413834316975239e-02 1.2671856804021208e-02
22 -1.4845193752112622e-02 -2.6903075460382789e-02 1.9632731891461797e-02
23 2.9588279624412472e-02 -2.2395675500103088e-02 -4.3085088014829017e-03
24 6.4901308773142037e-04 -7.0059750615399726e-04 -4.1801355281514564e-03
25 -1.2713288658801260e-02 9.0351437618734418e-03 -4.1997756661950282e-03
26 -3.4693009628328192e-02 1.1004174840218404e-02 -7.6233955155951966e-03
27 -3.4240377985092552e-02 2.4440069264514180e-02 9.3053733577475161e-03
28 -6.7021685800837925e-04 1.7960638863786735e-03 -5.1702965968457469e-03
29 1.4517677456403035e-03 -3.0355070319166831e-03 -3.7845553369536744e-03
30 2.2869596787047239e-02 -1.6885264517943210e-02 2.7634593941454566e-02
31 1.0887028302271546e-02 -9.8043147097399974e-03 3.5501938683107789e-02
32 2.3011344195826653e-02 -2.6001219992056093e-02 3.9686819425217651e-02

Bonds

1 2 1 6
2 9 2 13
3 18 3 9
4 1 4 5
5 1 4 8
6 2 4 11
7 1 5 6
8 3 5 9
9 1 6 7
10 1 7 12
11 3 7 25
12 1 8 12
13 3 8 28
14 5 9 10
15 2 12 27
16 7 13 16
17 13 13 25
18 1 14 15
19 1 14 16
20 2 14 18
21 1 15 21
22 2 15 23
23 1 16 17
24 1 17 19
25 2 17 20
26 7 19 30
27 1 19 21
28 2 21 22
29 14 24 28
30 5 25 26
31 5 28 29
32 9 30 31
33 9 30 32

Angles

1 1 5 4 8
2 4 5 4 11
3 4 8 4 11
4 1 4 5 6
5 2 4 5 9
6 2 6 5 9
7 1 5 6 7
8 4 5 6 1
9 4 7 6 1
10 1 6 7 12
11 2 25 7 12
12 2 25 7 6
13 1 4 8 12
14 2 4 8 28
15 2 12 8 28
16 6 5 9 10
17 23 5 9 3
18 24 10 9 3
19 1 7 12 8
20 4 7 12 27
21 4 8 12 27
22 10 16 13 2
23 11 16 13 25
24 12 2 13 25
25 1 15 14 16
26 4 15 14 18
27 4 16 14 18
28 1 14 15 21
29 4 14 15 23
30 4 21 15 23
31 1 14 16 17
32 8 17 16 13
33 8 14 16 13
34 1 16 17 19
35 4 16 17 20
36 4 19 17 20
37 8 17 19 30
38 1 17 19 21
39 8 30 19 21
40 1 15 21 19
41 4 15 21 22
42 4 19 21 22
43 14 13 25 26
44 11 13 25 7
45 5 26 25 7
46 6 8 28 29
47 23 8 28 24
48 24 29 28 24
49 10 19 30 31
50 10 19 30 32
51 25 31 30 32

Dihedrals

1 30 5 3 9 10
2 1 5 4 8 12
3 11 5 4 8 28
4 1 8 4 5 6
5 11 8 4 5 9
6 11 28 4 8 12
7 11 9 4 5 6
8 2 11 4 5 6
9 13 11 4 5 9
10 2 11 4 8 5
11 2 11 4 8 12
12 13 11 4 8 28
13 1 4 5 6 7
14 2 4 5 6 1
15 15 4 5 9 10
16 15 6 5 9 10
17 13 9 5 6 1
18 31 4 5 9 3
19 31 6 5 9 3
20 1 5 6 7 12
21 11 7 6 5 9
22 13 1 6 7 25
23 2 5 7 6 1
24 1 6 7 12 8
25 2 6 7 12 27
26 2 12 7 6 1
27 11 25 7 12 8
28 11 25 7 6 5
29 1 4 8 12 7
30 2 4 8 12 27
31 15 4 8 28 29
32 2 7 8 12 27
33 15 12 8 28 29
34 13 28 8 12 27
35 31 4 8 28 24
36 31 12 8 28 24
37 11 7 12 8 28
38 13 27 12 7 25
39 21 2 13 25 26
40 18 2 13 25 7
41 20 16 13 25 26
42 1 15 14 16 17
43 1 16 14 15 21
44 2 16 14 15 23
45 2 18 14 15 21
46 7 18 14 15 23
47 2 18 14 16 15
48 2 18 14 16 17
49 3 15 14 16 13
50 9 18 14 16 13
51 2 14 15 21 19
52 2 14 15 21 22
53 1 14 16 17 19
54 2 14 16 17 20
55 16 17 16 13 25
56 6 17 16 13 2
57 6 14 16 13 2
58 16 14 16 13 25
59 3 16 17 19 30
60 1 16 17 19 21
61 2 20 17 19 21
62 3 19 17 16 13
63 9 20 17 16 13
64 2 15 19 21 22
65 2 16 19 17 20
66 6 17 19 30 31
67 2 17 19 21 22
68 9 30 19 17 20
69 9 30 19 21 22
70 6 17 19 30 32
71 6 21 19 30 32
72 2 14 21 15 23
73 1 15 21 19 17
74 3 15 21 19 30
75 3 17 21 19 30
76 2 19 21 15 23
77 7 22 21 15 23
78 30 8 24 28 29
79 15 26 25 7 12
80 15 26 25 7 6
81 16 13 25 7 12
82 16 13 25 7 6
83 6 31 30 19 21

Impropers

1 6 16 2 13 25
2 1 11 4 5 6
3 1 11 4 8 5
4 1 11 4 8 12
5 5 5 4 8 28
6 5 8 4 5 9
7 5 28 4 8 12
8 5 9 4 5 6
9 1 4 5 6 1
10 5 7 6 5 9
11 1 5 7 6 1
12 1 6 7 12 27
13 1 12 7 6 1
14 1 4 8 12 27
15 1 7 8 12 27
16 5 7 12 8 28
17 5 25 12 7 6
18 1 16 14 15 23
19 1 18 14 15 21
20 1 18 14 16 15
21 1 18 14 16 17
22 1 14 15 21 19
23 1 14 15 21 22
24 1 14 16 17 20
25 2 17 16 14 13
26 1 20 17 19 21
27 2 16 17 19 30
28 1 15 19 21 22
29 1 16 19 17 20
30 1 17 19 21 22
31 1 14 21 15 23
32 1 19 21 15 23
33 2 15 21 19 30
34 2 17 21 19 30
35 7 13 25 26 7
36 9 19 31 30 32
