LAMMPS data file via write_data, version 3 Mar 2020, timestep = 366

33 atoms
18 atom types
34 bonds
18 bond types
52 angles
25 angle types
83 dihedrals
31 dihedral types
35 impropers
9 improper types

0.0000000000000000e+00 1.0000000000000000e+01 xlo xhi
0.0000000000000000e+00 1.0000000000000000e+01 ylo yhi
0.0000000000000000e+00 1.0000000000000000e+01 zlo zhi

Masses

1 12.01
2 12.01
3 12.01
4 16
5 1.008
6 14.01
7 14.01
8 1.008
9 12.01
10 1.008
11 16
12 16
13 1.008
14 1.008
15 16
16 1.008
17 12.01
18 35.45

Pair Coeffs # lj/charmm/coul/long

1 0.086 3.39967 0.086 3.39967
2 0.086 3.39967 0.086 3.39967
3 0.086 3.39967 0.086 3.39967
4 0.21 2.9599 0.21 2.9599
5 0.015 2.5996 0.015 2.5996
6 0.17 3.25 0.17 3.25
7 0.17 3.25 0.17 3.25
8 0.0157 1.0691 0.0157 1.0691
9 0.1094 3.39967 0.1094 3.39967
10 0.01569 2.64954 0.01569 2.64954
11 0.21 2.9599 0.21 2.9599
12 0.21 2.9599 0.21 2.9599
13 0.015 2.5996 0.015 2.5996
14 0.015 2.5996 0.015 2.5996
15 0.1521 3.157 0.1521 3.157
16 0.015 2.058 0.015 2.058
17 0.06844 3.407 0.06844 3.407
18 0.265 3.47094 0.265 3.47094

Bond Coeffs # harmonic

1 461.1 1.3984
2 345.8 1.086
3 345.9 1.4906
4 345.9 1.4906
5 637.7 1.2183
6 637.7 1.2183
7 417.9 1.3859
8 417.9 1.3859
9 404.6 1.0121
10 404.6 1.0121
11 300.9 1.5375
12 330.6 1.0969
13 427.6 1.379
14 400.1 1.3513
15 371.4 0.973
16 371.4 0.973
17 450 0.9572
18 267.4 1.8029

Angle Coeffs # harmonic

1 66.6 120.02
2 64.3 120.33
3 64.3 120.33
4 48.2 119.88
5 68.7 122.6
6 68.7 122.6
7 68.3 120.95
8 68.3 120.95
9 48.4 116.07
10 48.4 116.07
11 63.8 123.71
12 48.3 117.55
13 67.7 115.25
14 74.2 123.05
15 62.9 111.51
16 46.3 109.8
17 39.4 107.58
18 69.2 113.45
19 49.9 106.55
20 75.9 122.1
21 40.1 115.12
22 55 104.52
23 61.111 114.705
24 58.8 120.69
25 40.1 115.12

Dihedral Coeffs # charmm

1 3.625 2 180 0.5
2 3.625 2 180 0
3 3.625 2 180 0
4 3.625 2 180 0
5 0.45 2 180 0
6 0.45 2 180 0
7 3.625 2 180 0
8 3.625 2 180 0
9 3.625 2 180 0
10 3.625 2 180 0
11 3.625 2 180 0
12 3.625 2 180 0
13 3.625 2 180 0
14 1.05 2 180 0
15 1.05 2 180 0
16 0.45 2 180 0
17 2.3 2 180 0
18 2.3 2 180 0
19 1.05 2 180 0
20 2.3 2 180 0
21 2.3 2 180 0
22 1 2 180 0
23 2.3 2 180 0
24 2.3 2 180 0
25 0.25 2 180 0
26 0.2 1 180 0
27 0.18 3 180 0
28 0.16 3 0 0
29 0.15 3 0 0
30 10.5 2 180 0
31 1 2 180 0

Improper Coeffs # harmonic

1 1.1 180
2 1.1 180
3 1.1 180
4 1.1 180
5 1.1 180
6 1.1 180
7 10.5 180
8 1.1 180
9 1.1 180

Atoms # full

1 2 5 1.4999999999999999e-01 7.5159650273816601e+00 2.7344683050685270e+00 6.9772863881182567e-01 0 0 0
2 1 8 2.3105000000000001e-01 3.2802839913539792e+00 1.1948933564018507e+00 6.3371166435803639e-01 0 0 1
3 2 18 -1.1360000000000001e-01 2.5492077418365239e-01 2.6864854909387104e+00 1.4530116076644957e+00 1 0 0
4 2 3 -2.0000000000000000e-02 7.1654969418985939e+00 1.4160411413394045e+00 3.8956437594850377e+00 0 0 0
5 2 3 -1.4999999999999999e-01 7.8527368691818236e+00 1.9440623720278540e+00 2.7763710366566823e+00 0 0 0
6 2 3 -2.0000000000000000e-02 7.0727568017191160e+00 2.3098306944255231e+00 1.5921526247221105e+00 0 0 0
7 2 3 -1.4999999999999999e-01 5.7129273790728661e+00 2.0531012314559711e+00 1.5064583462905070e+00 0 0 0
8 2 3 -1.4999999999999999e-01 5.7382950870418572e+00 1.2310348322628364e+00 3.8268095993387234e+00 0 0 0
9 2 1 6.4019999999999999e-01 9.3729456020602235e+00 2.1477900345387519e+00 2.9449803848167408e+00 0 0 0
10 2 4 -5.0660000000000005e-01 9.9624351593687273e+00 1.9461659671084206e+00 4.0105505835833410e+00 0 0 0
11 2 5 1.4999999999999999e-01 7.7301541063254264e+00 1.1685946799117417e+00 4.7943203102387493e+00 0 0 0
12 2 3 -2.0000000000000000e-02 5.0183076112742091e+00 1.5713722304057056e+00 2.6485545145350744e+00 0 0 0
13 2 4 -5.7609999999999995e-01 3.7654047803602682e+00 6.3555285121269944e-01 4.9697349086455676e+00 0 0 0
14 2 1 7.4342500000000000e-01 4.8898818371693578e+00 2.4659505509524049e+00 2.5865112122721723e-01 0 0 0
15 2 5 1.4999999999999999e-01 3.9397940433422036e+00 1.4529823438956617e+00 2.6250858909522905e+00 0 0 0
16 1 7 -3.9837499999999998e-01 3.6853583475761349e+00 1.8957425981376141e+00 2.3042008507365347e-02 0 0 1
17 1 3 -2.0000000000000000e-02 2.6142130113517257e+00 1.3468678849291429e+00 7.9681596883782486e+00 0 0 0
18 1 3 -2.0000000000000000e-02 1.6804930234064279e+00 1.7139479929204104e+00 6.9856921919357271e+00 0 0 0
19 1 3 1.7110000000000000e-01 3.0069787524218965e+00 2.2845312273508274e+00 8.9154196385133719e+00 0 0 0
20 1 3 -2.0000000000000000e-02 2.7239401603822366e+00 3.6311478041649030e+00 8.7377502402668430e+00 0 0 0
21 1 5 1.3100000000000001e-01 2.9868649296811727e+00 3.3074187908420288e-01 7.9912944474978476e+00 0 0 0
22 1 3 1.7110000000000000e-01 1.7324162183587917e+00 3.9833295571911296e+00 7.8619619346791447e+00 0 0 0
23 1 5 1.3100000000000001e-01 3.1258803316236099e+00 4.3885141910860677e+00 9.4098901649966340e+00 0 0 0
24 1 3 -2.0000000000000000e-02 1.0777709160983480e+00 3.0012958598527684e+00 7.0526460663179558e+00 0 0 0
25 1 5 1.3100000000000001e-01 2.4309582594908316e-01 3.2572647524427571e+00 6.4024420668642685e+00 0 0 0
26 1 5 1.6800000000000001e-01 1.4133541740760032e+00 9.9964491604490846e-01 6.2204229600923888e+00 0 0 0
27 2 4 -5.7609999999999995e-01 5.2402874390194212e+00 3.2889540006035682e+00 9.4006703707754316e+00 0 0 -1
28 3 12 -5.3510000000000002e-01 7.5885546583573413e+00 2.4855641195986271e+00 6.9526397614527911e+00 0 0 0
29 3 14 4.3149999999999999e-01 7.2678578290422537e+00 3.1822542821330519e+00 7.6020588530629833e+00 0 0 0
30 2 1 6.7969999999999997e-01 5.1367322583481494e+00 8.3700751853983080e-01 5.1329902982612738e+00 0 0 0
31 1 7 -8.2320000000000004e-01 1.3798908492649258e+00 5.2806937076248550e+00 8.0981852177088776e+00 0 0 0
32 1 8 2.0580000000000001e-01 7.3185588981416372e-01 5.7284855309650853e+00 7.4649529056333641e+00 0 0 0
33 1 8 2.0580000000000001e-01 1.9122187246829911e+00 5.8503538011320497e+00 8.7478553986793095e+00 0 0 0

Velocities

1 -6.5411348966314961e-03 1.3282094902513692e-02 2.9363242452956875e-03
2 -4.4279892638577796e-03 2.9291036485467967e-03 3.3624000527165041e-03
3 1.8964125855529348e-03 2.2752587839762078e-03 2.4539495261228935e-03
4 -1.0953166897885846e-03 4.8020639932691057e-05 -8.0205070025278589e-04
5 -6.2809190947285749e-05 5.2549130889462418e-04 -5.5508268943229579e-04
6 2.8081032468514995e-03 3.6523457446704351e-03 3.2168964592185659e-03
7 -2.0000114913171084e-03 6.8108590400200010e-04 -5.9403567708406571e-04
8 1.3565006737561787e-03 -2.8149918373540666e-04 1.0518347755484932e-04
9 -1.0594663995697462e-03 3.6044645108626477e-03 1.6756656080055424e-03
10 1.7166003889542069e-03 6.3230236735616610e-03 8.2513797654902663e-03
11 -2.8216591933320993e-03 4.9221844626704090e-05 1.4828912326744106e-04
12 4.0860742614260293e-04 -4.0064998522392327e-04 8.1493755044509663e-05
13 5.1146580976974346e-03 1.3531947921848469e-03 2.0205940232305248e-03
14 -1.1860853401149490e-02 2.6352335595398579e-03 4.6451504787481173e-03
15 2.6548685955886392e-04 6.3148038917865449e-04 6.6482750061817820e-04
16 -6.4234341574610247e-03 -5.2237184996049798e-05 6.9524115716106316e-03
17 1.5745387662538201e-02 -8.1211199552281704e-03 8.1992150417444258e-04
18 1.0055432694637732e-02 -1.1177737363386196e-02 2.2926885986882472e-03
19 5.8340505463364790e-03 -5.7377671835204249e-03 -5.3090508733289873e-03
20 1.8477644265464176e-02 -6.6529913265848221e-03 -1.0240008455910089e-02
21 1.9976567306960610e-02 -9.2962183111907435e-03 -1.4625090415018151e-03
22 1.3599098041643125e-02 -1.3068329448231072e-02 1.6919571535881264e-03
23 1.8937909858960149e-02 5.1689036712581817e-03 -2.4167123111510487e-02
24 -3.0119612827353724e-04 -1.8899598246135414e-02 7.3046784752207189e-03
25 -1.1379609255230100e-02 -1.5976128622637597e-02 2.0411100211747291e-02
26 -1.3397039604463035e-03 -1.3779864990219255e-02 4.6952786541141845e-03
27 -2.7815494830399932e-02 1.1443906326815847e-02 -6.6918290893336922e-03
28 -1.1149592827839814e-02 -7.2743924644191413e-03 -7.9340502449785147e-03
29 -3.8057185250749311e-03 -8.7277922688984641e-03 -5.2514339007585951e-03
30 1.0436911545927114e-02 7.9562405557918464e-03 8.2430863663875906e-03
31 1.6538697927615798e-02 -1.2492551198612097e-02 2.1319886171969581e-02
32 9.0469718218398106e-03 1.0755766062119811e-02 3.8994817520421152e-02
33 2.2667791187307686e-02 -3.0514344322793052e-02 3.1721061017803046e-02

Bonds

1 2 1 6
2 9 2 16
3 18 3 9
4 1 4 5
5 1 4 8
6 2 4 11
7 1 5 6
8 3 5 9
9 1 6 7
10 1 7 12
11 3 7 14
12 1 8 12
13 3 8 30
14 5 9 10
15 2 12 15
16 5 13 30
17 13 14 16
18 5 14 27
19 7 16 19
20 1 17 18
21 1 17 19
22 2 17 21
23 1 18 24
24 2 18 26
25 1 19 20
26 1 20 22
27 2 20 23
28 7 22 31
29 1 22 24
30 2 24 25
31 15 28 29
32 14 28 30
33 9 31 32
34 9 31 33

Angles

1 1 5 4 8
2 4 5 4 11
3 4 8 4 11
4 1 4 5 6
5 2 4 5 9
6 2 6 5 9
7 1 5 6 7
8 4 5 6 1
9 4 7 6 1
10 1 6 7 12
11 2 14 7 12
12 2 14 7 6
13 1 4 8 12
14 2 30 8 4
15 2 12 8 30
16 6 5 9 10
17 23 5 9 3
18 24 10 9 3
19 1 7 12 8
20 4 7 12 15
21 4 8 12 15
22 14 16 14 27
23 11 16 14 7
24 5 27 14 7
25 10 19 16 2
26 11 19 16 14
27 12 2 16 14
28 1 18 17 19
29 4 18 17 21
30 4 19 17 21
31 1 17 18 24
32 4 17 18 26
33 4 24 18 26
34 1 17 19 20
35 8 20 19 16
36 8 17 19 16
37 1 19 20 22
38 4 19 20 23
39 4 22 20 23
40 8 20 22 31
41 1 20 22 24
42 8 31 22 24
43 1 18 24 22
44 4 18 24 25
45 4 22 24 25
46 19 29 28 30
47 20 13 30 28
48 18 28 30 8
49 6 8 30 13
50 10 22 31 32
51 10 22 31 33
52 25 32 31 33

Dihedrals

1 30 5 3 9 10
2 1 5 4 8 12
3 1 8 4 5 6
4 11 8 4 5 9
5 11 9 4 5 6
6 2 11 4 5 6
7 13 11 4 5 9
8 2 11 4 8 5
9 2 11 4 8 12
10 1 4 5 6 7
11 2 4 5 6 1
12 15 4 5 9 10
13 15 6 5 9 10
14 13 9 5 6 1
15 31 4 5 9 3
16 31 6 5 9 3
17 1 5 6 7 12
18 11 7 6 5 9
19 13 1 6 7 14
20 2 5 7 6 1
21 1 6 7 12 8
22 2 6 7 12 15
23 2 12 7 6 1
24 11 14 7 12 8
25 11 14 7 6 5
26 1 4 8 12 7
27 2 4 8 12 15
28 2 7 8 12 15
29 13 30 8 12 15
30 11 30 8 12 7
31 11 30 8 4 5
32 13 30 8 4 11
33 13 15 12 7 14
34 15 27 14 7 12
35 15 27 14 7 6
36 16 16 14 7 12
37 16 16 14 7 6
38 21 2 16 14 27
39 18 2 16 14 7
40 20 19 16 14 27
41 1 18 17 19 20
42 1 19 17 18 24
43 2 19 17 18 26
44 2 21 17 18 24
45 7 21 17 18 26
46 2 21 17 19 18
47 2 21 17 19 20
48 3 18 17 19 16
49 9 21 17 19 16
50 2 17 18 24 22
51 2 17 18 24 25
52 1 17 19 20 22
53 2 17 19 20 23
54 16 20 19 16 14
55 6 20 19 16 2
56 6 17 19 16 2
57 16 17 19 16 14
58 3 19 20 22 31
59 1 19 20 22 24
60 2 23 20 22 24
61 3 22 20 19 16
62 9 23 20 19 16
63 2 18 22 24 25
64 2 19 22 20 23
65 6 20 22 31 32
66 2 20 22 24 25
67 9 31 22 20 23
68 9 31 22 24 25
69 6 20 22 31 33
70 6 24 22 31 33
71 2 17 24 18 26
72 1 18 24 22 20
73 3 18 24 22 31
74 3 20 24 22 31
75 2 22 24 18 26
76 7 25 24 18 26
77 24 29 28 30 13
78 23 29 28 30 8
79 14 13 30 8 4
80 14 13 30 8 12
81 22 28 30 8 12
82 22 28 30 8 4
83 6 32 31 22 24

Impropers

1 6 19 2 16 14
2 1 11 4 5 6
3 1 11 4 8 5
4 1 11 4 8 12
5 5 8 4 5 9
6 5 9 4 5 6
7 1 4 5 6 1
8 5 7 6 5 9
9 1 5 7 6 1
10 1 6 7 12 15
11 1 12 7 6 1
12 1 4 8 12 15
13 1 7 8 12 15
14 5 30 8 12 4
15 5 14 12 7 6
16 7 16 14 27 7
17 1 19 17 18 26
18 1 21 17 18 24
19 1 21 17 19 18
20 1 21 17 19 20
21 1 17 18 24 22
22 1 17 18 24 25
23 1 17 19 20 23
24 2 20 19 17 16
25 1 23 20 22 24
26 2 19 20 22 31
27 1 18 22 24 25
28 1 19 22 20 23
29 1 20 22 24 25
30 1 17 24 18 26
31 1 22 24 18 26
32 2 18 24 22 31
33 2 20 24 22 31
34 8 13 30 28 8
35 9 22 32 31 33
