tip3p water molecule, RJV: Last updated 20200308

3 atoms
2 bonds
1 angles
0 dihedrals
0 impropers

18 atom types
18 bond types
25 angle types
31 dihedral types
9 improper types

    0.000    0.6068 xlo xhi
   -0.2383   0.8929 ylo yhi
   -0.7169   0.2544 zlo zhi

Masses

 1 12.0100000 # C
 2 12.0100000 # LC
 3 12.0100000 # BC
 4 16.0000000 # CO
 5 1.0080000 # BH
 6 14.0100000 # LN
 7 14.0100000 # N
 8 1.0080000 # AH
 9 12.0100000 # HC
 10 1.0080000 # HH
 11 16.0000000 # OO
 12 16.0000000 # OOL
 13 1.0080000 # HP
 14 1.0080000 # HPL
 15 16.000000 # TO
 16 1.0080000 # TH
 17 12.010000 # GC
 18 35.4500000 # CL

Pair Coeffs

 1 0.08600 3.399670 # C
 2 0.08600 3.399670 # LC
 3 0.08600 3.399670 # BC
 4 0.21000 2.959900 # CO
 5 0.01500 2.599600 # BH
 6 0.17000 3.250000 # LN
 7 0.17000 3.250000 # N
 8 0.01570 1.069100 # AH
 9 0.10940 3.399670 # HC
 10 0.01569 2.649544 # HH
 11 0.21000 2.959900 # OO
 12 0.21000 2.959900 # OOL
 13 0.01500 2.599600 # HP
 14 0.01500 2.599600 # HPL
 15 0.155865 3.178 # TO
 16 0.00000 0.000000 # TH
 17 0.06844 3.40700 # GC
 18 0.26500 3.4709414 # CL

Bond Coeffs

 1 4.61100000e+02 1.39840000e+00 # BC,BC
 2 3.45800000e+02 1.08600000e+00 # BC,BH
 3 3.45900000e+02 1.49060000e+00 # BC,C
 4 3.45900000e+02 1.49060000e+00 # BC,LC
 5 6.37700000e+02 1.21830000e+00 # C,CO
 6 6.37700000e+02 1.21830000e+00 # LC,CO
 7 4.17900000e+02 1.38590000e+00 # BC,N
 8 4.17900000e+02 1.38590000e+00 # BC,LN
 9 4.04600000e+02 1.01210000e+00 # AH,N
 10 4.04600000e+02 1.01210000e+00 # AH,LN
 11 3.00900000e+02 1.53750000e+00 # HC,HC
 12 3.30600000e+02 1.09690000e+00 # HC,HH
 13 4.27600000e+02 1.37900000e+00 # LN,LC
 14 4.00100000e+02 1.35130000e+00 # LC,OOL
 15 3.71400000e+02 9.73000000e-01 # OOL,HPL
 16 3.71400000e+02 9.73000000e-01 # OO,HPL
 17 4.50000000e+02 1.011800000e+00 # TO,TH
 18 2.67400000e+02 1.80290000e+00 # C,CL

Angle Coeffs

 1 6.66000000e+01 1.20020052e+02 # BC,BC,BC
 2 6.43000000e+01 1.20330052e+02 # C,BC,BC
 3 6.43000000e+01 1.20330052e+02 # LC,BC,BC
 4 4.82000000e+01 1.19880051e+02 # BC,BC,BH
 5 6.87000000e+01 1.22600053e+02 # BC,LC,CO
 6 6.87000000e+01 1.22600053e+02 # BC,C,CO
 7 6.83000000e+01 1.20950052e+02 # BC,BC,LN
 8 6.83000000e+01 1.20950052e+02 # BC,BC,N
 9 4.84000000e+01 1.16070050e+02 # BC,LN,AH
 10 4.84000000e+01 1.16070050e+02 # BC,N,AH
 11 6.38000000e+01 1.23710053e+02 # LC,LN,BC
 12 4.83000000e+01 1.17550051e+02 # LC,LN,AH
 13 6.77000000e+01 1.15250050e+02 # BC,LC,LN
 14 7.42000000e+01 1.23050053e+02 # LN,LC,CO
 15 6.29000000e+01 1.11510048e+02 # HC,HC,HC
 16 4.63000000e+01 1.09800047e+02 # HC,HC,HH
 17 3.94000000e+01 1.07580046e+02 # HH,HC,HH
 18 6.92000000e+01 1.13450049e+02 # BC,LC,OOL
 19 4.99000000e+01 1.06550046e+02 # LC,OOL,HPL
 20 7.59000000e+01 1.22100052e+02 # CO,LC,OOL
 21 4.01000000e+01 1.15120050e+02 # AH,LN,AH
 22 5.50000000e+01 1.08150000e+02 # TH,TO,TH
 23 6.11110000e+01 1.14705049e+02 # BC,C,CL
 24 5.88000000e+01 1.20690052e+02 # CO,C,CL
 25 4.01000000e+01 1.15120050e+02 # AH,N,AH

Dihedral Coeffs

 1 3.62500000e+00 2 180 0.5 # BC,BC,BC,BC
 2 3.62500000e+00 2 180 0 # BC,BC,BC,BH
 3 3.62500000e+00 2 180 0 # BC,BC,BC,N
 4 3.62500000e+00 2 180 0 # BC,BC,BC,LN
 5 4.50000000e-01 2 180 0 # BC,BC,LN,AH
 6 4.50000000e-01 2 180 0 # BC,BC,N,AH
 7 3.62500000e+00 2 180 0 # BH,BC,BC,BH
 8 3.62500000e+00 2 180 0 # BH,BC,BC,LN
 9 3.62500000e+00 2 180 0 # BH,BC,BC,N
 10 3.62500000e+00 2 180 0 # LC,BC,BC,BC
 11 3.62500000e+00 2 180 0 # C,BC,BC,BC
 12 3.62500000e+00 2 180 0 # LC,BC,BC,BH
 13 3.62500000e+00 2 180 0 # C,BC,BC,BH
 14 1.05000000e+00 2 180 0 # BC,BC,LC,CO
 15 1.05000000e+00 2 180 0 # BC,BC,C,CO
 16 4.50000000e-01 2 180 0 # LC,LN,BC,BC
 17 2.30000000e+00 2 180 0 # BC,LC,LN,BC
 18 2.30000000e+00 2 180 0 # BC,LC,LN,AH
 19 1.05000000e+00 2 180 0 # BC,BC,LC,LN
 20 2.30000000e+00 2 180 0 # BC,LN,LC,CO
 21 2.30000000e+00 2 180 0 # AH,LN,LC,CO
 22 1.00000000e+00 2 180 0 # BC,BC,LC,OOL
 23 2.30000000e+00 2 180 0 # BC,LC,OOLL,HPL
 24 2.30000000e+00 2 180 0 # CO,LC,OOLL,HPL
 25 2.50000000e-01 2 180 0 # HC,HC,HC,HC
 26 2.00000000e-01 1 180 0 # HC,HC,HC,HC
 27 1.80000000e-01 3 180 0 # HC,HC,HC,HC
 28 1.60000000e-01 3 0 0 # HC,HC,HC,HH
 29 1.50000000e-01 3 0 0 # HH,HC,HC,HH
 30 1.05000000e+01 2 180 0 # BC,CL,C,CO
 31 1.00000000e+00 2 180 0 # BC,BC,C,CL

Improper Coeffs

 1 1.1 180 # BC,BC,BC,BH
 2 1.1 180 # BC,BC,BC,N
 3 1.1 180 # BC,BC,BC,LN
 4 1.1 180 # LC,BC,BC,BC
 5 1.1 180 # C,BC,BC,BC
 6 1.1 180 # LC,BC,LN,AH
 7 10.5 180 # BC,LN,LC,CO
 8 1.1 180 # OOL,LC,BC,CO
 9 1.1 180 # AH,N,BC,AH

Atoms

    1   1   15    -0.84844   -1.193   0.958  -0.019    
    2   1   16    0.42422  -0.093   0.981  -0.045   
    3   1   16    0.42422   -1.592   0.272   0.743    

Bonds

    1 17 1 2 # TO,TH
    2 17 1 3 # TO,TH


Angles

    1 22 2 1 3 # TH,TO,TH
