

36 atoms
35 bonds
51 angles
83 dihedrals
39 impropers

18 atom types
18 bond types
25 angle types
31 dihedral types
9 improper types

0.000000 10.000000 xlo xhi
0.000000 10.000000 ylo yhi
0.000000 10.000000 zlo zhi

Masses

 1 12.0100000 # C
 2 12.0100000 # LC
 3 12.0100000 # BC
 4 16.0000000 # CO
 5 1.0080000 # BH
 6 14.0100000 # LN
 7 14.0100000 # N
 8 1.0080000 # AH
 9 12.0100000 # HC
 10 1.0080000 # HH
 11 16.0000000 # OO
 12 16.0000000 # OOL
 13 1.0080000 # HP
 14 1.0080000 # HPL
 15 16.000000 # TO
 16 1.0080000 # TH
 17 12.010000 # GC
 18 35.4500000 # CL

Pair Coeffs

 1 0.08600 3.399670 # C
 2 0.08600 3.399670 # LC
 3 0.08600 3.399670 # BC
 4 0.21000 2.959900 # CO
 5 0.01500 2.599600 # BH
 6 0.17000 3.250000 # LN
 7 0.17000 3.250000 # N
 8 0.01570 1.069100 # AH
 9 0.10940 3.399670 # HC
 10 0.01569 2.649544 # HH
 11 0.21000 2.959900 # OO
 12 0.21000 2.959900 # OOL
 13 0.01500 2.599600 # HP
 14 0.01500 2.599600 # HPL
 15 0.15210 3.157000 # TO
 16 0.01500 2.058000 # TH
 17 0.06844 3.40700 # GC
 18 0.26500 3.4709414 # CL

Bond Coeffs

 1 4.61100000e+02 1.39840000e+00 # BC,BC
 2 3.45800000e+02 1.08600000e+00 # BC,BH
 3 3.45900000e+02 1.49060000e+00 # BC,C
 4 3.45900000e+02 1.49060000e+00 # BC,LC
 5 6.37700000e+02 1.21830000e+00 # C,CO
 6 6.37700000e+02 1.21830000e+00 # LC,CO
 7 4.17900000e+02 1.38590000e+00 # BC,N
 8 4.17900000e+02 1.38590000e+00 # BC,LN
 9 4.04600000e+02 1.01210000e+00 # AH,N
 10 4.04600000e+02 1.01210000e+00 # AH,LN
 11 3.00900000e+02 1.53750000e+00 # HC,HC
 12 3.30600000e+02 1.09690000e+00 # HC,HH
 13 4.27600000e+02 1.37900000e+00 # LN,LC
 14 4.00100000e+02 1.35130000e+00 # LC,OOL
 15 3.71400000e+02 9.73000000e-01 # OOL,HPL
 16 3.71400000e+02 9.73000000e-01 # OO,HPL
 17 4.50000000e+02 9.57200000e-01 # TO,TH
 18 2.67400000e+02 1.80290000e+00 # C,CL

Angle Coeffs

 1 6.66000000e+01 1.20020052e+02 # BC,BC,BC
 2 6.43000000e+01 1.20330052e+02 # C,BC,BC
 3 6.43000000e+01 1.20330052e+02 # LC,BC,BC
 4 4.82000000e+01 1.19880051e+02 # BC,BC,BH
 5 6.87000000e+01 1.22600053e+02 # BC,LC,CO
 6 6.87000000e+01 1.22600053e+02 # BC,C,CO
 7 6.83000000e+01 1.20950052e+02 # BC,BC,LN
 8 6.83000000e+01 1.20950052e+02 # BC,BC,N
 9 4.84000000e+01 1.16070050e+02 # BC,LN,AH
 10 4.84000000e+01 1.16070050e+02 # BC,N,AH
 11 6.38000000e+01 1.23710053e+02 # LC,LN,BC
 12 4.83000000e+01 1.17550051e+02 # LC,LN,AH
 13 6.77000000e+01 1.15250050e+02 # BC,LC,LN
 14 7.42000000e+01 1.23050053e+02 # LN,LC,CO
 15 6.29000000e+01 1.11510048e+02 # HC,HC,HC
 16 4.63000000e+01 1.09800047e+02 # HC,HC,HH
 17 3.94000000e+01 1.07580046e+02 # HH,HC,HH
 18 6.92000000e+01 1.13450049e+02 # BC,LC,OOL
 19 4.99000000e+01 1.06550046e+02 # LC,OOL,HPL
 20 7.59000000e+01 1.22100052e+02 # CO,LC,OOL
 21 4.01000000e+01 1.15120050e+02 # AH,LN,AH
 22 5.50000000e+01 1.04520000e+02 # TH,TO,TH
 23 6.11110000e+01 1.14705049e+02 # BC,C,CL
 24 5.88000000e+01 1.20690052e+02 # CO,C,CL
 25 4.01000000e+01 1.15120050e+02 # AH,N,AH

Dihedral Coeffs

 1 3.62500000e+00 2 180 0.5 # BC,BC,BC,BC
 2 3.62500000e+00 2 180 0 # BC,BC,BC,BH
 3 3.62500000e+00 2 180 0 # BC,BC,BC,N
 4 3.62500000e+00 2 180 0 # BC,BC,BC,LN
 5 4.50000000e-01 2 180 0 # BC,BC,LN,AH
 6 4.50000000e-01 2 180 0 # BC,BC,N,AH
 7 3.62500000e+00 2 180 0 # BH,BC,BC,BH
 8 3.62500000e+00 2 180 0 # BH,BC,BC,LN
 9 3.62500000e+00 2 180 0 # BH,BC,BC,N
 10 3.62500000e+00 2 180 0 # LC,BC,BC,BC
 11 3.62500000e+00 2 180 0 # C,BC,BC,BC
 12 3.62500000e+00 2 180 0 # LC,BC,BC,BH
 13 3.62500000e+00 2 180 0 # C,BC,BC,BH
 14 1.05000000e+00 2 180 0 # BC,BC,LC,CO
 15 1.05000000e+00 2 180 0 # BC,BC,C,CO
 16 4.50000000e-01 2 180 0 # LC,LN,BC,BC
 17 2.30000000e+00 2 180 0 # BC,LC,LN,BC
 18 2.30000000e+00 2 180 0 # BC,LC,LN,AH
 19 1.05000000e+00 2 180 0 # BC,BC,LC,LN
 20 2.30000000e+00 2 180 0 # BC,LN,LC,CO
 21 2.30000000e+00 2 180 0 # AH,LN,LC,CO
 22 1.00000000e+00 2 180 0 # BC,BC,LC,OOL
 23 2.30000000e+00 2 180 0 # BC,LC,OOLL,HPL
 24 2.30000000e+00 2 180 0 # CO,LC,OOLL,HPL
 25 2.50000000e-01 2 180 0 # HC,HC,HC,HC
 26 2.00000000e-01 1 180 0 # HC,HC,HC,HC
 27 1.80000000e-01 3 180 0 # HC,HC,HC,HC
 28 1.60000000e-01 3 0 0 # HC,HC,HC,HH
 29 1.50000000e-01 3 0 0 # HH,HC,HC,HH
 30 1.05000000e+01 2 180 0 # BC,CL,C,CO
 31 1.00000000e+00 2 180 0 # BC,BC,C,CL

Improper Coeffs

 1 1.1 180 # BC,BC,BC,BH
 2 1.1 180 # BC,BC,BC,N
 3 1.1 180 # BC,BC,BC,LN
 4 1.1 180 # LC,BC,BC,BC
 5 1.1 180 # C,BC,BC,BC
 6 1.1 180 # LC,BC,LN,AH
 7 10.5 180 # BC,LN,LC,CO
 8 1.1 180 # OOL,LC,BC,CO
 9 1.1 180 # AH,N,BC,AH

Atoms

 1 1 3 0.0140000 6.74783053204898 3.23610803395179 6.71947966522696
 2 1 3 -0.1956000 6.9139582013925 4.52349924189812 6.20049365849751
 3 1 3 0.0140000 5.82189009823203 5.1612697444484 5.6060468197169
 4 1 3 -0.1956000 4.57752519756434 4.53118379405682 5.52696654970333
 5 1 3 0.0140000 4.43338128776606 3.24410710023151 6.05208569568811
 6 1 3 -0.1956000 5.51250752016161 2.58725688957816 6.65020305484133
 7 1 1 0.67970000 5.32806553560999 1.20398033590635 7.2066535291843
 8 1 1 0.67970000 3.42069306180782 5.2417307864575 4.88276830283257
 9 1 1 0.67970000 8.25434332062926 5.19577375626786 6.2881903486151
 10 1 4 -0.5761000 4.25747563174068 0.631545996016047 7.15262405345613
 11 1 4 -0.5761000 3.53593045372314 6.36035432199099 4.4232688694759
 12 1 4 -0.5761000 9.2098257360599 4.64917937517368 6.80306794218382
 13 1 5 0.18160000 7.59765253160787 2.73931701181545 7.18090165147216
 14 1 5 0.18160000 5.93345176153524 6.1626639133804 5.19769193274968
 15 1 5 0.18160000 3.47199762490396 2.73950395343585 5.99901859641013
 16 1 18 -0.10360000 6.67453849969796 0.346880785477043 7.97021552249855
 17 1 18 -0.10360000 1.83211432873812 4.47072937753907 4.76707285657623
 18 1 18 -0.10360000 8.49606693160029 6.8246734814253 5.63985912055253
 19 2 12 -0.53510000 2.85967102056013 8.34417469660741 0.881612713580258
 20 2 14 0.43150000 3.45289655773726 7.99388896044655 1.56375446210702
 21 3 3 -0.1565000 7.52564470715591 4.02528934494902 1.34606435646327
 22 3 3 -0.2300000 7.89627160688596 2.86750189347798 2.02739754838385
 23 3 3 0.17160000 8.49933360631688 4.82369764292918 0.746802212350097
 24 3 3 -0.2300000 9.8448245828891 4.46147063772673 0.830746412059095
 25 3 5 0.10745000 6.47537211650741 4.30113527369705 1.2856449148438
 26 3 3 0.17160000 10.2160796208235 3.30247087346386 1.51411325588967
 27 3 7 -0.46210000 11.5315384933393 2.94801302940714 1.5972131446139
 28 3 8 0.23105000 11.7996456685299 2.21308170265759 2.24315701800654
 29 3 7 -0.46210000 8.13570727407971 5.95752520629102 0.0780354764363766
 30 3 8 0.23105000 7.15496769172936 6.10847123096832 -0.129948102832216
 31 3 5 0.10745000 10.6043639625508 5.0835698224327 0.363647348549738
 32 3 3 -0.1565000 9.23960604739081 2.50510932937712 2.11190914781202
 33 3 5 0.10745000 9.52062489684382 1.59975803610455 2.64440557223362
 34 3 5 0.10745000 7.13673222722428 2.245402708772 2.49449661189321
 35 3 8 0.23105000 12.2367861959112 3.62184669049716 1.32130758976015
 36 3 8 0.23105000 8.82478180361568 6.42400507806009 -0.501372688831505

Bonds

 1 1 1 2
 2 1 1 6
 3 2 1 13
 4 1 2 3
 5 3 2 9
 6 1 3 4
 7 2 3 14
 8 1 4 5
 9 3 4 8
 10 1 5 6
 11 2 5 15
 12 3 6 7
 13 5 7 10
 14 5 8 11
 15 5 9 12
 16 14 7 16
 17 16 8 17
 18 18 9 18
 19 15 19 20
 20 1 21 22
 21 1 21 23
 22 2 21 25
 23 1 22 32
 24 2 22 34
 25 1 23 24
 26 7 23 29
 27 1 24 26
 28 2 24 31
 29 7 26 27
 30 1 26 32
 31 9 27 28
 32 9 29 30
 33 2 32 33
 34 9 27 35
 35 9 29 36

Angles

 1 1 1 2 3
 2 2 1 2 9
 3 1 1 6 5
 4 2 1 6 7
 5 1 2 1 6
 6 4 2 1 13
 7 1 2 3 4
 8 4 2 3 14
 9 6 2 9 12
 10 2 3 2 9
 11 1 3 4 5
 12 2 3 4 8
 13 4 4 3 14
 14 1 4 5 6
 15 4 4 5 15
 16 6 4 8 11
 17 2 5 4 8
 18 2 5 6 7
 19 4 6 1 13
 20 4 6 5 15
 21 6 6 7 10
 22 23 2 9 18
 23 23 4 8 17
 24 23 6 7 16
 25 24 10 7 16
 26 24 11 8 17
 27 24 12 9 18
 28 1 21 22 32
 29 4 21 22 34
 30 1 21 23 24
 31 8 21 23 29
 32 1 22 21 23
 33 4 22 21 25
 34 1 22 32 26
 35 4 22 32 33
 36 4 23 21 25
 37 1 23 24 26
 38 4 23 24 31
 39 10 23 29 30
 40 8 24 23 29
 41 8 24 26 27
 42 1 24 26 32
 43 4 26 24 31
 44 10 26 27 28
 45 4 26 32 33
 46 8 27 26 32
 47 4 32 22 34
 48 10 23 29 36
 49 10 26 27 35
 50 25 28 27 35
 51 25 30 29 36

Dihedrals

 1 1 1 2 3 4
 2 2 1 2 3 14
 3 15 1 2 9 12
 4 1 1 6 5 4
 5 2 1 6 5 15
 6 15 1 6 7 10
 7 1 2 1 6 5
 8 11 2 1 6 7
 9 1 2 3 4 5
 10 11 2 3 4 8
 11 2 2 4 3 14
 12 15 3 2 9 12
 13 1 3 4 5 6
 14 2 3 4 5 15
 15 15 3 4 8 11
 16 11 4 3 2 9
 17 11 4 5 6 7
 18 2 4 6 5 15
 19 2 5 4 3 14
 20 15 5 4 8 11
 21 15 5 6 7 10
 22 1 6 1 2 3
 23 11 6 1 2 9
 24 11 6 5 4 8
 25 11 7 1 6 5
 26 13 7 6 5 15
 27 11 8 3 4 5
 28 13 8 4 3 14
 29 13 8 4 5 15
 30 11 9 1 2 3
 31 13 9 2 3 14
 32 2 13 1 2 3
 33 13 13 1 2 9
 34 2 13 1 6 2
 35 2 13 1 6 5
 36 13 13 1 6 7
 37 31 1 2 9 18
 38 31 1 6 7 16
 39 31 3 2 9 18
 40 31 3 4 8 17
 41 31 5 4 8 17
 42 31 5 6 7 16
 43 30 2 18 9 12
 44 30 4 17 8 11
 45 30 6 16 7 10
 46 2 21 22 32 26
 47 2 21 22 32 33
 48 1 21 23 24 26
 49 2 21 23 24 31
 50 6 21 23 29 30
 51 3 21 24 23 29
 52 2 21 32 22 34
 53 1 22 21 23 24
 54 3 22 21 23 29
 55 2 22 26 32 33
 56 1 22 32 26 24
 57 3 22 32 26 27
 58 1 23 21 22 32
 59 2 23 21 22 34
 60 3 23 24 26 27
 61 1 23 24 26 32
 62 2 23 26 24 31
 63 6 24 23 29 30
 64 6 24 26 27 28
 65 2 24 26 32 33
 66 3 24 32 26 27
 67 2 25 21 22 32
 68 7 25 21 22 34
 69 2 25 21 23 22
 70 2 25 21 23 24
 71 9 25 21 23 29
 72 3 26 24 23 29
 73 2 26 32 22 34
 74 9 27 26 24 31
 75 9 27 26 32 33
 76 6 28 27 26 32
 77 9 29 23 24 31
 78 2 31 24 26 32
 79 7 33 32 22 34
 80 6 21 23 29 36
 81 6 24 23 29 36
 82 6 24 26 27 35
 83 6 32 26 27 35

Impropers

 1 1 1 2 3 14
 2 1 1 6 5 15
 3 1 2 4 3 14
 4 1 3 4 5 15
 5 1 4 6 5 15
 6 1 5 4 3 14
 7 1 13 1 2 3
 8 1 13 1 6 2
 9 1 13 1 6 5
 10 5 2 1 6 7
 11 5 2 3 4 8
 12 5 4 3 2 9
 13 5 4 5 6 7
 14 5 6 1 2 9
 15 5 6 5 4 8
 16 5 7 1 6 5
 17 5 8 3 4 5
 18 5 9 1 2 3
 19 1 21 22 32 26
 20 1 21 22 32 33
 21 1 21 23 24 31
 22 1 21 32 22 34
 23 1 22 26 32 33
 24 1 23 21 22 34
 25 1 23 26 24 31
 26 1 24 26 32 33
 27 1 26 32 22 34
 28 1 25 21 22 32
 29 1 25 21 23 22
 30 1 25 21 23 24
 31 1 31 24 26 32
 32 2 21 24 23 29
 33 2 22 21 23 29
 34 2 22 32 26 27
 35 2 23 24 26 27
 36 2 24 32 26 27
 37 2 26 24 23 29
 38 9 23 30 29 36
 39 9 26 28 27 35

