LAMMPS data file via write_data, version 3 Mar 2020, timestep = 602

33 atoms
18 atom types
34 bonds
18 bond types
52 angles
25 angle types
83 dihedrals
31 dihedral types
35 impropers
9 improper types

0.0000000000000000e+00 1.0000000000000000e+01 xlo xhi
0.0000000000000000e+00 1.0000000000000000e+01 ylo yhi
0.0000000000000000e+00 1.0000000000000000e+01 zlo zhi

Masses

1 12.01
2 12.01
3 12.01
4 16
5 1.008
6 14.01
7 14.01
8 1.008
9 12.01
10 1.008
11 16
12 16
13 1.008
14 1.008
15 16
16 1.008
17 12.01
18 35.45

Pair Coeffs # lj/charmm/coul/long

1 0.086 3.39967 0.086 3.39967
2 0.086 3.39967 0.086 3.39967
3 0.086 3.39967 0.086 3.39967
4 0.21 2.9599 0.21 2.9599
5 0.015 2.5996 0.015 2.5996
6 0.17 3.25 0.17 3.25
7 0.17 3.25 0.17 3.25
8 0.0157 1.0691 0.0157 1.0691
9 0.1094 3.39967 0.1094 3.39967
10 0.01569 2.64954 0.01569 2.64954
11 0.21 2.9599 0.21 2.9599
12 0.21 2.9599 0.21 2.9599
13 0.015 2.5996 0.015 2.5996
14 0.015 2.5996 0.015 2.5996
15 0.1521 3.157 0.1521 3.157
16 0.015 2.058 0.015 2.058
17 0.06844 3.407 0.06844 3.407
18 0.265 3.47094 0.265 3.47094

Bond Coeffs # harmonic

1 461.1 1.3984
2 345.8 1.086
3 345.9 1.4906
4 345.9 1.4906
5 637.7 1.2183
6 637.7 1.2183
7 417.9 1.3859
8 417.9 1.3859
9 404.6 1.0121
10 404.6 1.0121
11 300.9 1.5375
12 330.6 1.0969
13 427.6 1.379
14 400.1 1.3513
15 371.4 0.973
16 371.4 0.973
17 450 0.9572
18 267.4 1.8029

Angle Coeffs # harmonic

1 66.6 120.02
2 64.3 120.33
3 64.3 120.33
4 48.2 119.88
5 68.7 122.6
6 68.7 122.6
7 68.3 120.95
8 68.3 120.95
9 48.4 116.07
10 48.4 116.07
11 63.8 123.71
12 48.3 117.55
13 67.7 115.25
14 74.2 123.05
15 62.9 111.51
16 46.3 109.8
17 39.4 107.58
18 69.2 113.45
19 49.9 106.55
20 75.9 122.1
21 40.1 115.12
22 55 104.52
23 61.111 114.705
24 58.8 120.69
25 40.1 115.12

Dihedral Coeffs # charmm

1 3.625 2 180 0.5
2 3.625 2 180 0
3 3.625 2 180 0
4 3.625 2 180 0
5 0.45 2 180 0
6 0.45 2 180 0
7 3.625 2 180 0
8 3.625 2 180 0
9 3.625 2 180 0
10 3.625 2 180 0
11 3.625 2 180 0
12 3.625 2 180 0
13 3.625 2 180 0
14 1.05 2 180 0
15 1.05 2 180 0
16 0.45 2 180 0
17 2.3 2 180 0
18 2.3 2 180 0
19 1.05 2 180 0
20 2.3 2 180 0
21 2.3 2 180 0
22 1 2 180 0
23 2.3 2 180 0
24 2.3 2 180 0
25 0.25 2 180 0
26 0.2 1 180 0
27 0.18 3 180 0
28 0.16 3 0 0
29 0.15 3 0 0
30 10.5 2 180 0
31 1 2 180 0

Improper Coeffs # harmonic

1 1.1 180
2 1.1 180
3 1.1 180
4 1.1 180
5 1.1 180
6 1.1 180
7 10.5 180
8 1.1 180
9 1.1 180

Atoms # full

1 3 8 2.3105000000000001e-01 2.0212375160644016e+00 3.2252575439070115e+00 5.9884619397994265e-01 1 0 0
2 3 3 -1.5650000000000000e-01 7.4020281951842399e+00 4.6284032099737997e+00 1.1515210698015705e+00 0 0 0
3 3 3 -2.3000000000000001e-01 7.9870428186538396e+00 4.2351336507564090e+00 2.3655195659636332e+00 0 0 0
4 2 12 -5.3510000000000002e-01 2.6753988418795340e+00 4.3501684868780224e+00 3.8974755220436816e+00 0 0 0
5 3 5 1.0745000000000000e-01 7.4407950993467722e+00 4.3556508131520815e+00 3.2852059369951747e+00 0 0 0
6 1 1 6.7969999999999997e-01 3.9726135891892747e+00 4.8748928238441236e+00 4.0970315178648686e+00 0 0 0
7 3 3 1.7160000000000000e-01 3.7285026035391002e-02 3.5865293895708916e+00 1.2392446661642620e+00 1 0 0
8 3 7 -4.6210000000000001e-01 1.3852877983739462e+00 3.1935549084434336e+00 1.3916506404627214e+00 1 0 0
9 3 8 2.3105000000000001e-01 1.7815092939632604e+00 3.0871695411174032e+00 2.3263901283400070e+00 1 0 0
10 3 3 -1.5650000000000000e-01 9.2924667149727167e+00 3.7539442278270840e+00 2.4195248511231950e+00 0 0 0
11 3 5 1.0745000000000000e-01 9.7038404935124891e+00 3.5157346839423109e+00 3.3914586550215784e+00 0 0 0
12 1 3 1.4000000000000000e-02 6.2143279390526676e+00 2.8208634839565101e+00 7.1487539836018463e+00 0 0 0
13 1 3 -1.9560000000000000e-01 6.5371709845825334e+00 4.1337115079361100e+00 6.7531908097393298e+00 0 0 0
14 1 18 -1.0360000000000000e-01 5.5914522190121962e+00 1.6392524942586462e-01 7.7774053039867743e+00 0 0 0
15 1 3 1.4000000000000000e-02 4.4060555979722089e+00 2.8108261452259118e+00 5.5122978250958941e+00 0 0 0
16 1 3 -1.9560000000000000e-01 5.1159127294337425e+00 2.1360949754309613e+00 6.5420765198596706e+00 0 0 0
17 1 1 6.7969999999999997e-01 4.7740514117527795e+00 6.8864418526461713e-01 6.8803486268735021e+00 0 0 0
18 1 3 1.4000000000000000e-02 5.8547223162822464e+00 4.7841671285844614e+00 5.7066871684980160e+00 0 0 0
19 3 5 1.0745000000000000e-01 1.8029956549149705e-02 3.8812109721442947e+00 9.0736470311572397e+00 1 0 -1
20 1 5 1.8160000000000001e-01 6.8346751043323248e+00 2.4054442783266059e+00 7.9343435126687938e+00 0 0 0
21 3 3 1.7160000000000000e-01 8.0792256480582640e+00 4.5129815078800517e+00 9.9341199815950088e+00 0 0 -1
22 1 3 -1.9560000000000000e-01 4.7675893214761000e+00 4.1249562740733232e+00 5.1042346071499063e+00 0 0 0
23 1 4 -5.7609999999999995e-01 3.8478268884475848e+00 2.8362941502434812e-02 6.4532962057306573e+00 0 0 0
24 1 4 -5.7609999999999995e-01 8.6694374849060925e+00 4.7161339105220037e+00 7.0896461064975247e+00 0 0 0
25 1 1 7.4342500000000000e-01 7.5751938035991824e+00 4.7801486488593206e+00 7.5516494716246010e+00 0 0 0
26 3 3 -2.3000000000000001e-01 9.4283115110291309e+00 3.9762801822371339e+00 9.9829781935500250e+00 0 0 -1
27 1 5 1.8160000000000001e-01 3.5818246133439207e+00 2.3292197173395031e+00 5.0044597015220766e+00 0 0 0
28 1 4 -5.7609999999999995e-01 4.5669228525078704e+00 5.8343403680169592e+00 3.6110023131556104e+00 0 0 0
29 2 14 4.3149999999999999e-01 2.1423168629834084e+00 5.0408854397064822e+00 3.4522815888556537e+00 0 0 0
30 3 5 1.0745000000000000e-01 6.3981391984089058e+00 5.0438916961968880e+00 1.1883556362312195e+00 0 0 0
31 3 8 2.3105000000000001e-01 6.4719799579935993e+00 5.4501017093803199e+00 9.0717275685340457e+00 0 0 -1
32 1 5 1.8160000000000001e-01 6.1372781843203859e+00 5.7926183354647272e+00 5.4288924973599295e+00 0 0 0
33 3 7 -3.9837499999999998e-01 7.3937301301016163e+00 5.0907723470441102e+00 8.8482731192490434e+00 0 0 -1

Velocities

1 -4.2101186373669653e-03 -1.5127047816005523e-02 -6.8323466399510813e-03
2 1.0613066625351215e-03 1.0218590163239441e-02 5.7497233827438050e-04
3 -1.9578286748950023e-03 1.9090621007028206e-03 -2.1203248977202873e-03
4 9.1330894307047345e-03 -1.2588384126057414e-03 -3.0382873576831272e-03
5 5.4550581027832269e-04 6.7844657282975394e-03 -1.3229892435651068e-03
6 3.6209717859262028e-03 1.0153393012311824e-03 -1.8230301667759882e-04
7 8.2003776807041881e-04 -2.5793667373670728e-03 -1.8167104329174526e-03
8 2.0227577271455977e-03 1.9305385316739686e-03 -5.4376657636340357e-03
9 6.7999912976348985e-03 2.9974655509577661e-02 -5.0695883435452529e-03
10 -5.9635744240075150e-04 5.1959713185824388e-03 -2.7453001034227803e-03
11 -5.6873518450078452e-03 3.0751267933456674e-03 -1.0482518758544131e-03
12 -1.7905690702875877e-03 -7.1667439718104868e-03 1.3713578982538846e-03
13 4.3475929523231841e-04 -3.5911875570278778e-03 8.7415836689205845e-03
14 4.6477261659183869e-04 2.4411347382572272e-03 4.6735081601940861e-05
15 -5.7273555299746737e-04 3.6812156209975731e-03 4.5775569120137046e-04
16 -4.4844638630654457e-03 -7.1778581344592073e-03 1.6055602992133219e-03
17 -7.8900729008123394e-03 -9.8862978228994244e-03 -5.5728246689345862e-03
18 8.4561307081673989e-03 -2.8821189501302968e-03 2.9970285073067076e-03
19 9.7778467298618565e-04 -7.8246628366876534e-04 -3.3136651211815877e-03
20 -1.5697116515131918e-03 -1.2442554638115137e-02 -2.0408148667995941e-03
21 2.1668547234809914e-03 7.0401753100456631e-04 2.0385320179230220e-03
22 6.1349448168219970e-03 1.4104476622422630e-03 -1.4064716178994736e-03
23 -1.0070431400244176e-02 -1.3248457649108819e-02 -2.1915812656553256e-03
24 -4.1442952088310524e-03 2.4934944137118041e-03 -4.6794074213387066e-04
25 -2.7603033375612073e-03 3.0048410038940876e-03 4.9826838339727510e-03
26 3.2707686282557975e-03 -1.2258255920514550e-03 -1.4545945503793610e-03
27 -7.6983464645583545e-03 8.0951711463267892e-03 1.1766148135247742e-02
28 -7.7311481845597635e-03 3.2790530128971136e-03 -2.4602157442812525e-03
29 1.1060512728355541e-02 -6.9227057173083962e-03 -1.3167054103776650e-02
30 -5.6777812530600950e-04 5.4315805616091057e-03 -1.4045045997414798e-03
31 7.9821226740562018e-04 1.8968865366289988e-03 1.0517030824243082e-02
32 1.1204774942554672e-02 -3.0115632230137595e-03 2.6472400944925348e-03
33 -8.8043861651828997e-04 -9.4491389566003108e-04 6.4165456013336427e-03

Bonds

1 9 1 8
2 1 2 3
3 1 2 21
4 2 2 30
5 1 3 10
6 2 3 5
7 15 4 29
8 14 4 6
9 5 6 28
10 3 6 22
11 1 7 26
12 7 7 8
13 1 7 10
14 9 8 9
15 2 10 11
16 1 12 13
17 1 12 16
18 2 12 20
19 1 13 18
20 3 13 25
21 14 14 17
22 1 15 22
23 1 15 16
24 2 15 27
25 3 16 17
26 5 17 23
27 1 18 22
28 2 18 32
29 2 19 26
30 1 21 26
31 7 21 33
32 5 24 25
33 13 25 33
34 9 31 33

Angles

1 1 3 2 21
2 4 3 2 30
3 4 21 2 30
4 1 2 3 10
5 4 2 3 5
6 4 10 3 5
7 19 29 4 6
8 20 28 6 4
9 18 4 6 22
10 6 22 6 28
11 8 26 7 8
12 1 26 7 10
13 8 8 7 10
14 10 7 8 9
15 10 7 8 1
16 25 9 8 1
17 1 3 10 7
18 4 3 10 11
19 4 7 10 11
20 1 13 12 16
21 4 13 12 20
22 4 16 12 20
23 1 12 13 18
24 2 25 13 18
25 2 25 13 12
26 1 22 15 16
27 4 22 15 27
28 4 16 15 27
29 1 12 16 15
30 2 12 16 17
31 2 15 16 17
32 6 16 17 23
33 23 16 17 14
34 24 23 17 14
35 1 13 18 22
36 4 13 18 32
37 4 22 18 32
38 1 2 21 26
39 8 26 21 33
40 8 2 21 33
41 1 18 22 15
42 2 6 22 18
43 2 15 22 6
44 14 33 25 24
45 11 33 25 13
46 5 24 25 13
47 1 21 26 7
48 4 21 26 19
49 4 7 26 19
50 10 21 33 31
51 11 21 33 25
52 12 31 33 25

Dihedrals

1 1 3 2 21 26
2 1 21 2 3 10
3 2 21 2 3 5
4 2 30 2 3 10
5 7 30 2 3 5
6 2 30 2 21 3
7 2 30 2 21 26
8 3 3 2 21 33
9 9 30 2 21 33
10 2 2 3 10 7
11 2 2 3 10 11
12 24 29 4 6 28
13 23 29 4 6 22
14 14 28 6 22 18
15 14 28 6 22 15
16 22 4 6 22 15
17 22 4 6 22 18
18 2 3 7 10 11
19 2 21 7 26 19
20 6 26 7 8 9
21 2 26 7 10 11
22 9 8 7 26 19
23 9 8 7 10 11
24 6 26 7 8 1
25 6 10 7 8 1
26 6 9 8 7 10
27 2 2 10 3 5
28 1 3 10 7 26
29 3 3 10 7 8
30 3 26 10 7 8
31 2 7 10 3 5
32 7 11 10 3 5
33 1 13 12 16 15
34 11 13 12 16 17
35 1 16 12 13 18
36 11 17 12 16 15
37 2 20 12 13 18
38 2 20 12 16 13
39 2 20 12 16 15
40 13 20 12 16 17
41 13 20 12 13 25
42 1 12 13 18 22
43 2 12 13 18 32
44 11 25 13 18 22
45 11 25 13 12 16
46 30 16 14 17 23
47 11 22 15 16 17
48 1 12 16 15 22
49 2 12 16 15 27
50 15 12 16 17 23
51 2 22 16 15 27
52 15 15 16 17 23
53 13 17 16 15 27
54 31 12 16 17 14
55 31 15 16 17 14
56 1 13 18 22 15
57 13 32 18 13 25
58 1 2 21 26 7
59 2 2 21 26 19
60 16 26 21 33 25
61 6 26 21 33 31
62 6 2 21 33 31
63 16 2 21 33 25
64 2 13 22 18 32
65 1 18 22 15 16
66 2 18 22 15 27
67 2 15 22 18 32
68 13 6 22 15 27
69 11 6 22 15 16
70 11 6 22 18 13
71 13 6 22 18 32
72 15 24 25 13 18
73 15 24 25 13 12
74 16 33 25 13 18
75 16 33 25 13 12
76 3 21 26 7 8
77 1 21 26 7 10
78 2 19 26 7 10
79 3 7 26 21 33
80 9 19 26 21 33
81 21 31 33 25 24
82 18 31 33 25 13
83 20 21 33 25 24

Impropers

1 1 21 2 3 5
2 1 30 2 3 10
3 1 30 2 21 3
4 1 30 2 21 26
5 1 2 3 10 7
6 1 2 3 10 11
7 8 28 6 4 22
8 1 3 7 10 11
9 1 21 7 26 19
10 1 26 7 10 11
11 9 7 9 8 1
12 1 2 10 3 5
13 1 7 10 3 5
14 2 3 10 7 8
15 2 26 10 7 8
16 1 20 12 13 18
17 1 20 12 16 13
18 1 20 12 16 15
19 5 13 12 16 17
20 5 17 12 16 15
21 1 12 13 18 32
22 5 22 15 16 17
23 1 12 16 15 27
24 1 22 16 15 27
25 5 25 18 13 12
26 1 2 21 26 19
27 2 26 21 2 33
28 1 13 22 18 32
29 1 18 22 15 27
30 1 15 22 18 32
31 5 6 22 15 18
32 7 33 25 24 13
33 1 19 26 7 10
34 2 21 26 7 8
35 6 21 31 33 25

