m-phenylene diamine, RJV: Last updated 20200824

16 atoms
16 bonds
24 angles
38 dihedrals
21 impropers

18 atom types
18 bond types
25 angle types
31 dihedral types
9 improper types

0.000000 90.000000 xlo xhi
0.000000 90.000000 ylo yhi
0.000000 90.000000 zlo zhi

Masses

 1 12.0100000 # C
 2 12.0100000 # LC
 3 12.0100000 # BC
 4 16.0000000 # CO
 5 1.0080000 # BH
 6 14.0100000 # LN
 7 14.0100000 # N
 8 1.0080000 # AH
 9 12.0100000 # HC
 10 1.0080000 # HH
 11 16.0000000 # OO
 12 16.0000000 # OOL
 13 1.0080000 # HP
 14 1.0080000 # HPL
 15 16.000000 # TO
 16 1.0080000 # TH
 17 12.010000 # GC
 18 35.4500000 # CL

Pair Coeffs

 1 0.08600 3.399670 # C
 2 0.08600 3.399670 # LC
 3 0.08600 3.399670 # BC
 4 0.21000 2.959900 # CO
 5 0.01500 2.599600 # BH
 6 0.17000 3.250000 # LN
 7 0.17000 3.250000 # N
 8 0.01570 1.069100 # AH
 9 0.10940 3.399670 # HC
 10 0.01569 2.649544 # HH
 11 0.21000 2.959900 # OO
 12 0.21000 2.959900 # OOL
 13 0.01500 2.599600 # HP
 14 0.01500 2.599600 # HPL
 15 0.155865 3.178 # TO
 16 0.00000 0.000000 # TH
 17 0.06844 3.40700 # GC
 18 0.26500 3.4709414 # CL

Bond Coeffs

 1 4.61100000e+02 1.39840000e+00 # BC,BC
 2 3.45800000e+02 1.08600000e+00 # BC,BH
 3 3.45900000e+02 1.49060000e+00 # BC,C
 4 3.45900000e+02 1.49060000e+00 # BC,LC
 5 6.37700000e+02 1.21830000e+00 # C,CO
 6 6.37700000e+02 1.21830000e+00 # LC,CO
 7 4.17900000e+02 1.38590000e+00 # BC,N
 8 4.17900000e+02 1.38590000e+00 # BC,LN
 9 4.04600000e+02 1.01210000e+00 # AH,N
 10 4.04600000e+02 1.01210000e+00 # AH,LN
 11 3.00900000e+02 1.53750000e+00 # HC,HC
 12 3.30600000e+02 1.09690000e+00 # HC,HH
 13 4.27600000e+02 1.37900000e+00 # LN,LC
 14 4.00100000e+02 1.35130000e+00 # LC,OOL
 15 3.71400000e+02 9.73000000e-01 # OOL,HPL
 16 3.71400000e+02 9.73000000e-01 # OO,HPL
 17 4.50000000e+02 1.011800000e+00 # TO,TH
 18 2.67400000e+02 1.80290000e+00 # C,CL

Angle Coeffs

 1 6.66000000e+01 1.20020052e+02 # BC,BC,BC
 2 6.43000000e+01 1.20330052e+02 # C,BC,BC
 3 6.43000000e+01 1.20330052e+02 # LC,BC,BC
 4 4.82000000e+01 1.19880051e+02 # BC,BC,BH
 5 6.87000000e+01 1.22600053e+02 # BC,LC,CO
 6 6.87000000e+01 1.22600053e+02 # BC,C,CO
 7 6.83000000e+01 1.20950052e+02 # BC,BC,LN
 8 6.83000000e+01 1.20950052e+02 # BC,BC,N
 9 4.84000000e+01 1.16070050e+02 # BC,LN,AH
 10 4.84000000e+01 1.16070050e+02 # BC,N,AH
 11 6.38000000e+01 1.23710053e+02 # LC,LN,BC
 12 4.83000000e+01 1.17550051e+02 # LC,LN,AH
 13 6.77000000e+01 1.15250050e+02 # BC,LC,LN
 14 7.42000000e+01 1.23050053e+02 # LN,LC,CO
 15 6.29000000e+01 1.11510048e+02 # HC,HC,HC
 16 4.63000000e+01 1.09800047e+02 # HC,HC,HH
 17 3.94000000e+01 1.07580046e+02 # HH,HC,HH
 18 6.92000000e+01 1.13450049e+02 # BC,LC,OOL
 19 4.99000000e+01 1.06550046e+02 # LC,OOL,HPL
 20 7.59000000e+01 1.22100052e+02 # CO,LC,OOL
 21 4.01000000e+01 1.15120050e+02 # AH,LN,AH
 22 5.50000000e+01 1.08150000e+02 # TH,TO,TH
 23 6.11110000e+01 1.14705049e+02 # BC,C,CL
 24 5.88000000e+01 1.20690052e+02 # CO,C,CL
 25 4.01000000e+01 1.15120050e+02 # AH,N,AH

Dihedral Coeffs

 1 3.62500000e+00 2 180 0.5 # BC,BC,BC,BC
 2 3.62500000e+00 2 180 0 # BC,BC,BC,BH
 3 3.62500000e+00 2 180 0 # BC,BC,BC,N
 4 3.62500000e+00 2 180 0 # BC,BC,BC,LN
 5 4.50000000e-01 2 180 0 # BC,BC,LN,AH
 6 4.50000000e-01 2 180 0 # BC,BC,N,AH
 7 3.62500000e+00 2 180 0 # BH,BC,BC,BH
 8 3.62500000e+00 2 180 0 # BH,BC,BC,LN
 9 3.62500000e+00 2 180 0 # BH,BC,BC,N
 10 3.62500000e+00 2 180 0 # LC,BC,BC,BC
 11 3.62500000e+00 2 180 0 # C,BC,BC,BC
 12 3.62500000e+00 2 180 0 # LC,BC,BC,BH
 13 3.62500000e+00 2 180 0 # C,BC,BC,BH
 14 1.05000000e+00 2 180 0 # BC,BC,LC,CO
 15 1.05000000e+00 2 180 0 # BC,BC,C,CO
 16 4.50000000e-01 2 180 0 # LC,LN,BC,BC
 17 2.30000000e+00 2 180 0 # BC,LC,LN,BC
 18 2.30000000e+00 2 180 0 # BC,LC,LN,AH
 19 1.05000000e+00 2 180 0 # BC,BC,LC,LN
 20 2.30000000e+00 2 180 0 # BC,LN,LC,CO
 21 2.30000000e+00 2 180 0 # AH,LN,LC,CO
 22 1.00000000e+00 2 180 0 # BC,BC,LC,OOL
 23 2.30000000e+00 2 180 0 # BC,LC,OOLL,HPL
 24 2.30000000e+00 2 180 0 # CO,LC,OOLL,HPL
 25 2.50000000e-01 2 180 0 # HC,HC,HC,HC
 26 2.00000000e-01 1 180 0 # HC,HC,HC,HC
 27 1.80000000e-01 3 180 0 # HC,HC,HC,HC
 28 1.60000000e-01 3 0 0 # HC,HC,HC,HH
 29 1.50000000e-01 3 0 0 # HH,HC,HC,HH
 30 1.05000000e+01 2 180 0 # BC,CL,C,CO
 31 1.00000000e+00 2 180 0 # BC,BC,C,CL

Improper Coeffs

 1 1.1 180 # BC,BC,BC,BH
 2 1.1 180 # BC,BC,BC,N
 3 1.1 180 # BC,BC,BC,LN
 4 1.1 180 # LC,BC,BC,BC
 5 1.1 180 # C,BC,BC,BC
 6 1.1 180 # LC,BC,LN,AH
 7 10.5 180 # BC,LN,LC,CO
 8 1.1 180 # OOL,LC,BC,CO
 9 1.1 180 # AH,N,BC,AH


Atoms

     1      1      3 -0.1565000   -5.2620000    2.3930000    0.1160000 # BC
     2      1      3 -0.2300000   -4.0650000    1.6840000    0.1970000 # BC
     3      1      3 0.17160000   -6.4680000    1.7100000   -0.0380000 # BC
     4      1      3 -0.2300000   -6.4740000    0.3160000   -0.1110000 # BC
     5      1      5 0.10745000   -5.2490000    3.4790000    0.1730000 # BH
     6      1      3 0.17160000   -5.2750000   -0.3940000   -0.0310000 # BC
     7      1      7 -0.46210000   -5.2800000   -1.7570000   -0.1030000 # N
     8      1      8 0.23105000   -4.3980000   -2.2430000   -0.2260000 # AH 
     9      1      7 -0.46210000   -7.6410000    2.4050000   -0.1160000 # N
    10      1      8 0.23105000   -7.6410000    3.3910000    0.1200000 # AH 
    11      1      5 0.10745000   -7.4140000   -0.2170000   -0.2310000 # BH
    12      1      3 -0.1565000   -4.0700000    0.2920000    0.1240000 # BC
    13      1      5 0.10745000   -3.1320000   -0.2540000    0.1890000 # BH
    14      1      5 0.10745000   -3.1250000    2.2170000    0.3170000 # BH
    15      1      8 0.23105000   -6.1290000   -2.2270000   -0.3960000 # AH
    16      1      8 0.23105000   -8.5150000    1.8960000   -0.0440000 # AH

Bonds

     1      1 1 2 # BC,BC
     2      1 1 3 # BC,BC
     3      2 1 5 # BC,BH
     4      1 2 12 # BC,BC
     5      2 2 14 # BC,BH
     6      1 3 4 # BC,BC
     7      7 3 9 # BC,N
     8      1 4 6 # BC,BC
     9      2 4 11 # BC,BH
    10      7 6 7 # BC,N
    11      1 6 12 # BC,BC
    12      9 7 8 # AH,N
    13      9 9 10 # AH,N
    14      2 12 13 # BC,BH
    15      9 7 15 # AH,N
    16      9 9 16 # AH,N

Angles

     1      1 1 2 12 # BC,BC,BC
     2      4 1 2 14 # BC,BC,BH
     3      1 1 3 4 # BC,BC,BC
     4      8 1 3 9 # BC,BC,N
     5      1 2 1 3 # BC,BC,BC
     6      4 2 1 5 # BC,BC,BH
     7      1 2 12 6 # BC,BC,BC
     8      4 2 12 13 # BC,BC,BH
     9      4 3 1 5 # BC,BC,BH
    10      1 3 4 6 # BC,BC,BC
    11      4 3 4 11 # BC,BC,BH
    12      10 3 9 10 # BC,N,AH
    13      8 4 3 9 # BC,BC,N
    14      8 4 6 7 # BC,BC,N
    15      1 4 6 12 # BC,BC,BC
    16      4 6 4 11 # BC,BC,BH
    17      10 6 7 8 # BC,N,AH
    18      4 6 12 13 # BC,BC,BH
    19      8 7 6 12 # BC,BC,N
    20      4 12 2 14 # BC,BC,BH
    21      10 3 9 16 # BC,N,AH
    22      10 6 7 15 # BC,N,AH
    23      25 8 7 15 # AH,N,AH
    24      25 10 9 16 # AH,N,AH

Dihedrals

     1      2 1 2 12 6 # BC,BC,BC,BH
     2      2 1 2 12 13 # BC,BC,BC,BH
     3      1 1 3 4 6 # BC,BC,BC,BC
     4      2 1 3 4 11 # BC,BC,BC,BH
     5      6 1 3 9 10 # BC,BC,N,AH
     6      3 1 4 3 9 # BC,BC,BC,N
     7      2 1 12 2 14 # BC,BC,BC,BH
     8      1 2 1 3 4 # BC,BC,BC,BC
     9      3 2 1 3 9 # BC,BC,BC,N
    10      2 2 6 12 13 # BC,BC,BC,BH
    11      1 2 12 6 4 # BC,BC,BC,BC
    12      3 2 12 6 7 # BC,BC,BC,N
    13      1 3 1 2 12 # BC,BC,BC,BC
    14      2 3 1 2 14 # BC,BC,BC,BH
    15      3 3 4 6 7 # BC,BC,BC,N
    16      1 3 4 6 12 # BC,BC,BC,BC
    17      2 3 6 4 11 # BC,BC,BC,BH
    18      6 4 3 9 10 # BC,BC,N,AH
    19      6 4 6 7 8 # BC,BC,N,AH
    20      2 4 6 12 13 # BC,BC,BC,BH
    21      3 4 12 6 7 # BC,BC,BC,N
    22      2 5 1 2 12 # BH,BC,BC,BC
    23      7 5 1 2 14 # BH,BC,BC,BH
    24      2 5 1 3 2 # BH,BC,BC,BC
    25      2 5 1 3 4 # BH,BC,BC,BC
    26      9 5 1 3 9 # BH,BC,BC,N
    27      3 6 4 3 9 # BC,BC,BC,N
    28      2 6 12 2 14 # BC,BC,BC,BH
    29      9 7 6 4 11 # N,BC,BC,BH
    30      9 7 6 12 13 # N,BC,BC,BH
    31      6 8 7 6 12 # AH,N,BC,BC
    32      9 9 3 4 11 # N,BC,BC,BH
    33      2 11 4 6 12 # BH,BC,BC,BC
    34      7 13 12 2 14 # BH,BC,BC,BH
    35      6 1 3 9 16 # BC,BC,N,AH
    36      6 4 3 9 16 # BC,BC,N,AH
    37      6 4 6 7 15 # BC,BC,N,AH
    38      6 12 6 7 15 # BC,BC,N,AH

Impropers

     1      1 1 2 12 6 # BC,BC,BC,BH
     2      1 1 2 12 13 # BC,BC,BC,BH
     3      1 1 3 4 11 # BC,BC,BC,BH
     4      1 1 12 2 14 # BC,BC,BC,BH     
     5      1 2 6 12 13 # BC,BC,BC,BH
     6      1 3 1 2 14 # BC,BC,BC,BH
     7      1 3 6 4 11 # BC,BC,BC,BH
     8      1 4 6 12 13 # BC,BC,BC,BH
     9      1 6 12 2 14 # BC,BC,BC,BH
    10      1 5 1 2 12 # BH,BC,BC,BC
    11      1 5 1 3 2 # BH,BC,BC,BC
    12      1 5 1 3 4 # BH,BC,BC,BC
    13      1 11 4 6 12 # BH,BC,BC,BC
    14      2 1 4 3 9 # BC,BC,BC,N
    15      2 2 1 3 9 # BC,BC,BC,N
    16      2 2 12 6 7 # BC,BC,BC,N
    17      2 3 4 6 7 # BC,BC,BC,N
    18      2 4 12 6 7 # BC,BC,BC,N
    19      2 6 4 3 9 # BC,BC,BC,N
    20      9 3 10 9 16 # BC,AH,N,AH
    21      9 6 8 7 15 # BC,AH,N,AH