tip4p water molecule, RJV: Last updated 20200308

3 atoms
2 bonds
1 angles
0 dihedrals
0 impropers

3 atom types
1 bond types
1 angle types
0 dihedral types
0 improper types

    0.000    0.6068 xlo xhi
   -0.2383   0.8929 ylo yhi
   -0.7169   0.2544 zlo zhi

Masses

 1 16.000000 # TO
 2 1.0080000 # TH
 3 15.999400 # GC

Pair Coeffs

 1 0.179082 3.165500 # TO
 2 0.00000 0.000000 # TH
 3 0.155865 3.178  # GC


Bond Coeffs

 1 4.50000000e+02 9.57200000e-01 # TO,TH

Angle Coeffs

 1 5.50000000e+01 1.04520000e+02 # TH,TO,TH

Atoms

    1   1   1    -1.05174   -1.193   0.958  -0.019
    2   1   2    0.52587  -0.093   0.981  -0.045     
    3   1   2    0.52587   -1.592   0.272   0.743    

Bonds

    1 1 1 2 # TO,TH
    2 1 1 3 # TO,TH


Angles

    1 1 2 1 3 # TH,TO,TH
