Trimesoyl chloride, RJV: Last updated 20200824

18 atoms
18 bonds
27 angles
45 dihedrals
18 impropers

18 atom types
18 bond types
25 angle types
31 dihedral types
9 improper types

0.000000 90.000000 xlo xhi
0.000000 90.000000 ylo yhi
0.000000 90.000000 zlo zhi

Masses

 1 12.0100000 # C
 2 12.0100000 # LC
 3 12.0100000 # BC
 4 16.0000000 # CO
 5 1.0080000 # BH
 6 14.0100000 # LN
 7 14.0100000 # N
 8 1.0080000 # AH
 9 12.0100000 # HC
 10 1.0080000 # HH
 11 16.0000000 # OO
 12 16.0000000 # OOL
 13 1.0080000 # HP
 14 1.0080000 # HPL
 15 16.000000 # TO
 16 1.0080000 # TH
 17 12.010000 # GC
 18 35.4500000 # CL

Pair Coeffs

 1 0.08600 3.399670 # C
 2 0.08600 3.399670 # LC
 3 0.08600 3.399670 # BC
 4 0.21000 2.959900 # CO
 5 0.01500 2.599600 # BH
 6 0.17000 3.250000 # LN
 7 0.17000 3.250000 # N
 8 0.01570 1.069100 # AH
 9 0.10940 3.399670 # HC
 10 0.01569 2.649544 # HH
 11 0.21000 2.959900 # OO
 12 0.21000 2.959900 # OOL
 13 0.01500 2.599600 # HP
 14 0.01500 2.599600 # HPL
 15 0.155865 3.178 # TO
 16 0.00000 0.000000 # TH
 17 0.06844 3.40700 # GC
 18 0.26500 3.4709414 # CL

Bond Coeffs

 1 4.61100000e+02 1.39840000e+00 # BC,BC
 2 3.45800000e+02 1.08600000e+00 # BC,BH
 3 3.45900000e+02 1.49060000e+00 # BC,C
 4 3.45900000e+02 1.49060000e+00 # BC,LC
 5 6.37700000e+02 1.21830000e+00 # C,CO
 6 6.37700000e+02 1.21830000e+00 # LC,CO
 7 4.17900000e+02 1.38590000e+00 # BC,N
 8 4.17900000e+02 1.38590000e+00 # BC,LN
 9 4.04600000e+02 1.01210000e+00 # AH,N
 10 4.04600000e+02 1.01210000e+00 # AH,LN
 11 3.00900000e+02 1.53750000e+00 # HC,HC
 12 3.30600000e+02 1.09690000e+00 # HC,HH
 13 4.27600000e+02 1.37900000e+00 # LN,LC
 14 4.00100000e+02 1.35130000e+00 # LC,OOL
 15 3.71400000e+02 9.73000000e-01 # OOL,HPL
 16 3.71400000e+02 9.73000000e-01 # OO,HPL
 17 4.50000000e+02 1.011800000e+00 # TO,TH
 18 2.67400000e+02 1.80290000e+00 # C,CL

Angle Coeffs

 1 6.66000000e+01 1.20020052e+02 # BC,BC,BC
 2 6.43000000e+01 1.20330052e+02 # C,BC,BC
 3 6.43000000e+01 1.20330052e+02 # LC,BC,BC
 4 4.82000000e+01 1.19880051e+02 # BC,BC,BH
 5 6.87000000e+01 1.22600053e+02 # BC,LC,CO
 6 6.87000000e+01 1.22600053e+02 # BC,C,CO
 7 6.83000000e+01 1.20950052e+02 # BC,BC,LN
 8 6.83000000e+01 1.20950052e+02 # BC,BC,N
 9 4.84000000e+01 1.16070050e+02 # BC,LN,AH
 10 4.84000000e+01 1.16070050e+02 # BC,N,AH
 11 6.38000000e+01 1.23710053e+02 # LC,LN,BC
 12 4.83000000e+01 1.17550051e+02 # LC,LN,AH
 13 6.77000000e+01 1.15250050e+02 # BC,LC,LN
 14 7.42000000e+01 1.23050053e+02 # LN,LC,CO
 15 6.29000000e+01 1.11510048e+02 # HC,HC,HC
 16 4.63000000e+01 1.09800047e+02 # HC,HC,HH
 17 3.94000000e+01 1.07580046e+02 # HH,HC,HH
 18 6.92000000e+01 1.13450049e+02 # BC,LC,OOL
 19 4.99000000e+01 1.06550046e+02 # LC,OOL,HPL
 20 7.59000000e+01 1.22100052e+02 # CO,LC,OOL
 21 4.01000000e+01 1.15120050e+02 # AH,LN,AH
 22 5.50000000e+01 1.08150000e+02 # TH,TO,TH
 23 6.11110000e+01 1.14705049e+02 # BC,C,CL
 24 5.88000000e+01 1.20690052e+02 # CO,C,CL
 25 4.01000000e+01 1.15120050e+02 # AH,N,AH

Dihedral Coeffs

 1 3.62500000e+00 2 180 0.5 # BC,BC,BC,BC
 2 3.62500000e+00 2 180 0 # BC,BC,BC,BH
 3 3.62500000e+00 2 180 0 # BC,BC,BC,N
 4 3.62500000e+00 2 180 0 # BC,BC,BC,LN
 5 4.50000000e-01 2 180 0 # BC,BC,LN,AH
 6 4.50000000e-01 2 180 0 # BC,BC,N,AH
 7 3.62500000e+00 2 180 0 # BH,BC,BC,BH
 8 3.62500000e+00 2 180 0 # BH,BC,BC,LN
 9 3.62500000e+00 2 180 0 # BH,BC,BC,N
 10 3.62500000e+00 2 180 0 # LC,BC,BC,BC
 11 3.62500000e+00 2 180 0 # C,BC,BC,BC
 12 3.62500000e+00 2 180 0 # LC,BC,BC,BH
 13 3.62500000e+00 2 180 0 # C,BC,BC,BH
 14 1.05000000e+00 2 180 0 # BC,BC,LC,CO
 15 1.05000000e+00 2 180 0 # BC,BC,C,CO
 16 4.50000000e-01 2 180 0 # LC,LN,BC,BC
 17 2.30000000e+00 2 180 0 # BC,LC,LN,BC
 18 2.30000000e+00 2 180 0 # BC,LC,LN,AH
 19 1.05000000e+00 2 180 0 # BC,BC,LC,LN
 20 2.30000000e+00 2 180 0 # BC,LN,LC,CO
 21 2.30000000e+00 2 180 0 # AH,LN,LC,CO
 22 1.00000000e+00 2 180 0 # BC,BC,LC,OOL
 23 2.30000000e+00 2 180 0 # BC,LC,OOLL,HPL
 24 2.30000000e+00 2 180 0 # CO,LC,OOLL,HPL
 25 2.50000000e-01 2 180 0 # HC,HC,HC,HC
 26 2.00000000e-01 1 180 0 # HC,HC,HC,HC
 27 1.80000000e-01 3 180 0 # HC,HC,HC,HC
 28 1.60000000e-01 3 0 0 # HC,HC,HC,HH
 29 1.50000000e-01 3 0 0 # HH,HC,HC,HH
 30 1.05000000e+01 2 180 0 # BC,CL,C,CO
 31 1.00000000e+00 2 180 0 # BC,BC,C,CL

Improper Coeffs

 1 1.1 180 # BC,BC,BC,BH
 2 1.1 180 # BC,BC,BC,N
 3 1.1 180 # BC,BC,BC,LN
 4 1.1 180 # LC,BC,BC,BC
 5 1.1 180 # C,BC,BC,BC
 6 1.1 180 # LC,BC,LN,AH
 7 10.5 180 # BC,LN,LC,CO
 8 1.1 180 # OOL,LC,BC,CO
 9 1.1 180 # AH,N,BC,AH


Atoms

     1      1      3 0.0140000   -4.4110000    1.2040000    0.0100000 # BC
     2      1      3 -0.1956000   -3.2050000    1.9110000    0.0040000 # BC
     3      1      3 0.0140000   -2.0020000    1.2000000    0.0030000 # BC
     4      1      3 -0.1956000   -1.9930000   -0.1970000    0.0070000 # BC
     5      1      3 0.0140000   -3.2100000   -0.8840000    0.0130000 # BC
     6      1      3 -0.1956000   -4.4250000   -0.1930000    0.0150000 # BC
     7      1      1 0.67970000   -5.7180000   -0.9580000    0.0210000 # C
     8      1      1 0.67970000   -0.6840000   -0.9350000    0.0050000 # C
     9      1      1 0.67970000   -3.2210000    3.4130000    0.0000000 # C
    10      1      4 -0.5761000   -5.7410000   -2.1730000    0.0240000 # CO
    11      1      4 -0.5761000    0.3790000   -0.3470000    0.0000000 # CO
    12      1      4 -0.5761000   -4.2620000    4.0400000    0.0010000 # CO
    13      1      5 0.18160000   -5.3470000    1.7570000    0.0120000  # BH
    14      1      5 0.18160000   -1.0550000    1.7340000   -0.0020000  # BH
    15      1      5 0.18160000   -3.2210000   -1.9710000    0.0160000  # BH
    16      1      18 -0.10360000   -7.2720000   -0.1120000    0.0230000 # CL
    17      1      18 -0.10360000   -0.6390000   -2.7040000    0.0100000 # CL
    18      1      18 -0.10360000   -1.7110000    4.3360000   -0.0070000 # CL

Bonds

     1      1 1 2 # BC,BC
     2      1 1 6 # BC,BC
     3      2 1 13 # BC,BH
     4      1 2 3 # BC,BC
     5      3 2 9 # BC,C
     6      1 3 4 # BC,BC
     7      2 3 14 # BC,BH
     8      1 4 5 # BC,BC
     9      3 4 8 # BC,C
    10      1 5 6 # BC,BC
    11      2 5 15 # BC,BH
    12      3 6 7 # BC,C
    13      5 7 10 # C,CO
    14      5 8 11 # C,CO
    15      5 9 12 # C,CO
    16     14 7 16 # C,CL
    17     16 8 17 # C,CL
    18     18 9 18 # C,CL


Angles

     1      1 1 2 3 # BC,BC,BC
     2      2 1 2 9 # C,BC,BC
     3      1 1 6 5 # BC,BC,BC
     4      2 1 6 7 # C,BC,BC
     5      1 2 1 6 # BC,BC,BC
     6      4 2 1 13 # BC,BC,BH
     7      1 2 3 4 # BC,BC,BC
     8      4 2 3 14 # BC,BC,BH
     9      6 2 9 12 # BC,C,CO
    10      2 3 2 9 # C,BC,BC
    11      1 3 4 5 # BC,BC,BC
    12      2 3 4 8 # C,BC,BC
    13      4 4 3 14 # BC,BC,BH
    14      1 4 5 6 # BC,BC,BC
    15      4 4 5 15 # BC,BC,BH
    16      6 4 8 11 # BC,C,CO
    17      2 5 4 8 # C,BC,BC
    18      2 5 6 7 # C,BC,BC
    19      4 6 1 13 # BC,BC,BH
    20      4 6 5 15 # BC,BC,BH
    21      6 6 7 10 # BC,C,CO
    22     23 2 9 18 # BC,C,CL  
    23     23 4 8 17 # BC,C,CL    
    24     23 6 7 16 # BC,C,CL
    25     24 10 7 16 # CO,C,CL
    26     24 11 8 17 # CO,C,CL
    27     24 12 9 18 # CO,C,CL

Dihedrals

     1      1 1 2 3 4 # BC,BC,BC,BC
     2      2 1 2 3 14 # BC,BC,BC,BH
     3      15 1 2 9 12 # BC,BC,C,CO
     4      1 1 6 5 4 # BC,BC,BC,BC
     5      2 1 6 5 15 # BC,BC,BC,BH
     6      15 1 6 7 10 # BC,BC,C,CO
     7      1 2 1 6 5 # BC,BC,BC,BC
     8      11 2 1 6 7 # BC,BC,BC,C
     9      1 2 3 4 5 # BC,BC,BC,BC
    10      11 2 3 4 8 # BC,BC,BC,C
    11      2 2 4 3 14 # BC,BC,BC,BH
    12      15 3 2 9 12 # BC,BC,C,CO
    13      1 3 4 5 6 # BC,BC,BC,BC
    14      2 3 4 5 15 # BC,BC,BC,BH
    15      15 3 4 8 11 # BC,BC,C,CO
    16      11 4 3 2 9 # BC,BC,BC,C
    17      11 4 5 6 7 # BC,BC,BC,C
    18      2 4 6 5 15 # BC,BC,BC,BH
    19      2 5 4 3 14 # BC,BC,BC,BH
    20      15 5 4 8 11 # BC,BC,C,CO
    21      15 5 6 7 10 # BC,BC,C,CO
    22      1 6 1 2 3 # BC,BC,BC,BC
    23      11 6 1 2 9 # BC,BC,BC,C
    24      11 6 5 4 8 # BC,BC,BC,C
    25      11 7 1 6 5 # C,BC,BC,BC
    26      13 7 6 5 15 # C,BC,BC,BH
    27      11 8 3 4 5 # C,BC,BC,BC
    28      13 8 4 3 14 # C,BC,BC,BH
    29      13 8 4 5 15 # C,BC,BC,BH
    30      11 9 1 2 3 # C,BC,BC,BC
    31      13 9 2 3 14 # C,BC,BC,BH
    32      2 13 1 2 3 # BH,BC,BC,BC
    33      13 13 1 2 9 # BH,BC,BC,C
    34      2 13 1 6 2 # BH,BC,BC,BC
    35      2 13 1 6 5 # BH,BC,BC,BC
    36      13 13 1 6 7 # BH,BC,BC,C
    37      31 1 2 9 18 # BC,BC,C,CL
    38      31 1 6 7 16 # BC,BC,C,CL
    39      31 3 2 9 18 # BC,BC,C,CL
    40      31 3 4 8 17 # BC,BC,C,CL
    41      31 5 4 8 17 # BC,BC,C,CL
    42      31 5 6 7 16 # BC,BC,C,CL
    43      30 2 18 9 12 # BC,CL,C,CO
    44      30 4 17 8 11 # BC,CL,C,CO
    45      30 6 16 7 10 # BC,CL,C,CO

Impropers

     1      1 1 2 3 14 # BC,BC,BC,BH
     2      1 1 6 5 15 # BC,BC,BC,BH
     3      1 2 4 3 14 # BC,BC,BC,BH
     4      1 3 4 5 15 # BC,BC,BC,BH
     5      1 4 6 5 15 # BC,BC,BC,BH
     6      1 5 4 3 14 # BC,BC,BC,BH
     7      1 13 1 2 3 # BH,BC,BC,BC
     8      1 13 1 6 2 # BH,BC,BC,BC
     9      1 13 1 6 5 # BH,BC,BC,BC
    10      5 2 1 6 7 # BC,BC,BC,C
    11      5 2 3 4 8 # BC,BC,BC,C
    12      5 4 3 2 9 # BC,BC,BC,C
    13      5 4 5 6 7 # BC,BC,BC,C
    14      5 6 1 2 9 # BC,BC,BC,C
    15      5 6 5 4 8 # BC,BC,BC,C
    16      5 7 1 6 5 # C,BC,BC,BC
    17      5 8 3 4 5 # C,BC,BC,BC
    18      5 9 1 2 3 # C,BC,BC,BC