ITEM: TIMESTEP
0
ITEM: NUMBER OF ATOMS
1149
ITEM: BOX BOUNDS pp pp pp
-2.0000000000000000e+01 2.0000000000000000e+01
-2.0000000000000000e+01 2.0000000000000000e+01
-2.0000000000000000e+01 2.0000000000000000e+01
ITEM: ATOMS id type x y z vx vy vz
1 1 4.46152 -19.8825 -19.4972 1.97392 1.4098 -0.359697
2 1 1.07741 -17.5784 -19.3535 1.07143 -2.34773 -0.243911
3 1 -17.5424 -16.6475 -18.9392 0.858967 -0.125397 2.38177
4 1 -15.9624 -15.9563 -19.0164 -0.254288 -0.956937 -1.04137
5 1 0.0819644 -16.8524 -19.2825 -1.19556 0.612076 1.97529
6 1 -5.27016 -15.5923 -19.6383 -0.193662 -0.686797 -0.591223
7 1 -3.00915 -14.8473 -18.8312 -1.01119 -0.758652 -1.21639
8 1 -13.231 -13.2123 -19.3511 0.082828 -0.488787 -0.313803
9 1 2.73616 -13.398 -19.8031 0.137014 0.0440342 0.564197
10 1 12.4989 -11.8224 -19.5009 -0.526832 -0.267976 0.188559
11 1 -13.2189 -10.3167 -19.0263 0.257034 0.232072 0.677285
12 1 4.9546 -10.6366 -19.9267 -0.129209 0.321454 -0.811677
13 1 18.851 -10.9466 -19.712 -0.384752 -0.974102 -1.77569
14 1 -19.3723 -7.46627 -18.5878 1.46046 0.451544 0.486609
15 1 -6.27972 -8.1254 -19.1489 0.372904 0.539317 -0.170037
16 1 5.43041 -8.55537 -19.0259 -0.760962 -0.89975 0.108045
17 1 14.4989 -8.29614 -18.778 0.514015 0.240156 0.366641
18 1 -18.6724 -6.82773 -19.8957 0.450004 -0.995174 1.64087
20 1 -17.2083 -6.34134 -19.4825 -0.365672 -1.00285 -1.35852
19 1 -16.3331 -6.05811 -18.8197 0.75888 0.675293 0.438529
21 1 15.7399 -6.80875 -19.6765 -0.781882 -1.02157 1.16559
22 1 -13.6684 -4.0376 -19.9802 -0.352857 0.881678 -0.671531
23 2 -2.02266 -3.67581 -19.5325 -0.961889 -0.681426 0.11971
24 1 11.0601 -3.67924 -19.0265 1.368 -0.886297 0.287193
25 2 -4.04213 -2.14734 -19.9364 1.17544 -0.968628 0.696702
26 1 -13.5007 1.95445 -19.5842 -0.148216 -1.28798 -1.01704
27 1 -11.9598 1.8464 -19.4987 0.599471 -0.859372 1.44745
28 1 14.9034 1.929 -19.3287 -1.73263 -0.638483 -1.46843
29 1 -15.9811 5.57126 -19.3585 -0.0677878 -0.700233 0.52845
30 2 -7.9136 4.75977 -18.8933 -0.930136 -0.43002 -0.864862
31 2 -5.45677 4.58536 -19.3853 1.18627 1.9597 1.34142
32 2 6.04292 4.91611 -19.5431 -0.473363 -1.59742 0.80798
33 1 -16.5916 6.46889 -19.024 -0.297844 0.120178 0.0970493
35 1 -16.2034 8.15277 -19.3381 -0.597321 0.415781 0.310884
36 1 -6.09858 8.5366 -19.7399 -0.614933 -0.769756 0.332168
34 2 5.1385 7.29343 -19.1095 -0.11739 1.18909 -1.33571
37 1 -18.2965 10.3445 -19.8386 -0.43225 1.36569 -0.25853
38 1 -10.3139 13.924 -19.4597 -1.08848 -1.81193 -1.17921
39 1 -9.52594 17.4487 -19.3263 1.0518 0.742296 1.11642
40 1 6.25086 18.2603 -19.2379 -1.997 0.12041 -0.722968
41 1 17.182 17.8652 -19.3666 0.0108932 -1.01358 0.094594
42 1 -14.6666 19.1575 -19.4882 -0.0713873 -0.149036 0.569521
43 1 8.31918 -19.4715 -17.6632 -0.452423 -1.14032 -0.129168
44 1 -8.47134 -17.8103 -17.6882 -0.164523 0.872691 -0.134355
45 1 -17.6839 -15.8161 -18.1482 0.629945 0.157972 -1.00431
46 1 -16.7437 -16.7932 -18.1797 0.534195 -1.13015 1.40951
47 1 2.17196 -15.8492 -17.4847 -0.505757 1.02118 0.149114
48 1 6.0061 -15.5042 -18.4512 0.637487 1.02902 -1.12881
49 1 -5.50265 -12.453 -17.355 -0.165221 1.01501 -0.990483
50 1 -19.2283 -10.3681 -17.3465 -0.936004 1.1053 -0.304365
51 1 7.96541 -10.5778 -17.3726 -0.0972658 -0.112708 0.127241
52 1 -5.33786 -8.56273 -18.2658 0.1735 -0.370854 -0.504409
53 2 -2.30165 -7.82582 -17.2659 -0.566621 1.49872 -0.127784
54 1 12.1095 -5.86582 -17.1779 0.251476 -0.231446 1.10776
55 2 -0.22985 -3.70292 -17.6032 1.73197 -0.218519 -1.69117
56 1 11.2 -3.76284 -17.8864 -0.154129 0.534461 -0.973178
57 1 -16.6813 -2.29776 -18.4783 0.409688 -0.698104 -0.387947
58 2 -3.64842 -2.26418 -17.4177 0.16405 -0.764372 0.488876
59 2 -0.791704 -1.03937 -17.7601 -0.217381 0.956274 -1.02648
60 1 16.5763 -1.33385 -18.0833 -0.609749 3.22224 -1.25018
61 1 11.9028 2.1384 -17.3652 0.624981 0.268117 -0.678633
62 1 -18.2264 3.78035 -18.2779 -0.323146 -1.02967 -0.316164
63 1 12.3363 4.02558 -17.6704 -0.26187 -0.697847 -1.29268
64 1 19.6762 2.98609 -18.1608 1.12602 1.25539 -1.91837
65 2 8.0593 4.74245 -17.9426 0.42818 -1.50608 0.0429427
66 1 -9.53849 6.57002 -17.6743 1.09174 -1.32008 0.121282
67 1 -5.916 9.71158 -17.4647 -0.166281 0.784475 1.00296
68 1 -17.7637 12.5372 -17.6696 3.21101 -2.31663 -0.683453
69 1 6.02203 12.0303 -17.8654 0.21693 2.607 -0.843293
70 1 -6.9154 12.9554 -18.3638 0.32647 0.989659 1.15656
71 1 5.33904 13.5831 -17.8486 -1.11137 0.582105 0.285899
72 1 -16.4113 15.0188 -18.3235 0.319491 -0.287898 0.110852
73 1 17.6792 14.3073 -17.8472 -0.310916 -0.331583 -0.0961093
74 1 -6.73653 19.1362 -18.5289 0.933517 0.20887 0.0195753
75 1 14.0754 -19.5805 -16.2731 1.11211 1.34823 -0.40024
76 1 15.7756 -19.8946 -16.4738 1.24314 1.23637 -0.313258
77 1 -19.6998 -16.1278 -16.3625 -0.4354 -0.122498 0.166564
78 1 -19.1105 -17.0733 -16.2305 -2.13175 0.27307 0.584198
79 1 -16.2855 -15.7814 -16.2455 0.467001 1.58865 -0.25484
80 1 -15.3751 -16.9473 -16.8975 0.609732 -0.796017 -2.00305
81 1 -10.3415 -13.2221 -16.5815 1.16608 0.169098 1.12672
124 1 -11.006 -12.838 -15.725 -2.10732 -0.0901574 -0.421969
82 1 9.60688 -11.8601 -16.0486 1.41876 0.793437 -1.25798
83 1 15.9474 -12.403 -16.9905 0.180626 -0.403246 0.916912
84 1 -6.65023 -11.3533 -16.4847 -0.260108 -2.46696 -1.35196
85 1 14.4008 -7.73888 -16.8905 0.00330741 -0.117241 -1.25164
86 1 10.054 -6.59403 -16.6251 0.0104158 0.820552 -0.974872
87 1 11.5077 -6.46727 -16.0888 -0.784616 -0.349178 0.0719802
88 1 19.465 -6.25294 -16.6826 0.0462524 -1.29755 -0.724145
89 1 -9.82397 -4.54957 -16.5081 -0.0111843 -1.84594 -1.05007
90 2 -7.92274 -4.31725 -16.312 0.849437 -0.976059 1.16775
91 2 -2.1291 -5.30281 -16.5236 -1.43201 -0.0894513 -0.257565
92 2 3.86472 -5.58389 -16.8733 -1.72201 0.938904 1.17181
93 1 19.3227 -3.4591 -17.0384 -0.0400791 -1.17296 0.601892
94 1 -13.2638 -2.3285 -15.7344 -1.88336 0.46328 0.1513
95 1 12.5638 -0.215155 -16.1018 -0.615385 -1.98909 0.727087
96 1 -15.653 0.774904 -16.192 2.04511 -0.194429 0.56436
97 1 15.1679 3.58489 -16.9695 0.202739 0.0775127 -3.01087
98 1 10.785 4.67297 -16.4583 -0.238416 1.68844 -0.0484557
99 1 13.6511 4.74436 -17.1059 -1.24727 -1.53298 -0.765317
100 1 13.6285 5.78896 -16.3547 -0.110603 0.167053 0.177614
101 1 -19.9436 8.23132 -16.2645 -0.350715 1.14567 1.73063
102 1 -10.4308 9.94014 -16.0442 -1.37171 1.08257 -0.291232
103 1 6.23083 8.97612 -16.3299 0.310689 0.574537 -1.72344
104 1 10.4581 8.89297 -15.927 1.30531 0.416245 -1.05297
105 1 -14.717 11.311 -16.4149 -1.20738 -1.01813 0.767895
106 1 18.0384 11.0492 -16.9212 -0.450273 0.0204659 -0.193875
107 1 -1.27732 12.094 -16.6924 0.807017 1.25284 1.13209
108 1 1.98992 12.5643 -16.4234 -1.41766 -0.264647 -0.13411
111 1 -18.9906 14.1918 -16.7423 0.651699 -1.28692 0.275238
109 1 -9.1668 13.5529 -16.0993 0.244414 1.17893 1.02725
110 1 -19.1913 15.1315 -16.1477 -0.674978 -0.119791 -0.859634
112 1 -14.1677 19.4071 -16.9421 0.226177 0.300634 0.779614
113 1 -12.3724 18.7861 -16.181 -1.1048 -1.64099 -1.07013
114 1 -0.536288 19.9265 -16.0597 0.85657 -0.126208 -0.736728
115 1 12.602 18.9301 -16.4198 -0.380452 0.680867 0.50211
116 1 -16.5752 -19.876 -15.4719 0.247765 -1.52359 0.380403
117 1 4.74047 -19.7331 -15.3299 -1.03708 -0.701496 -1.6237
118 1 10.8753 -19.2809 -14.5913 -0.767513 -0.313006 -0.326407
119 1 -11.4229 -18.1113 -14.6829 -2.10704 0.20842 0.174639
120 1 17.5487 -18.2576 -15.4718 -2.45098 -0.728758 -0.886946
121 1 -18.3546 -15.9622 -14.7578 -1.01941 1.24288 0.512684
122 1 -9.43277 -16.5273 -15.1161 0.626626 0.183251 0.301636
123 1 5.22321 -13.4619 -14.9008 -1.36938 0.122079 0.794684
125 1 -4.56164 -12.4674 -15.4654 0.711202 -0.893416 -1.66848
126 1 15.2715 -11.1486 -14.5245 -0.890379 0.169622 -0.978519
127 1 -10.9621 -9.53323 -14.5357 0.943272 0.494429 0.534985
129 2 3.40953 -8.86925 -14.5543 -0.178703 -0.234276 -1.39498
128 2 1.37685 -7.84379 -15.6624 -0.0130223 -0.00492865 1.49811
130 1 9.52313 -7.77789 -15.185 -0.676633 -0.236312 2.6821
131 1 -17.6953 -5.78201 -14.455 -1.30017 0.542983 -0.735948
132 2 -2.19825 -6.88106 -14.3162 0.886372 0.812878 -0.871337
133 2 2.50566 -6.02643 -14.3058 0.729268 0.422405 0.804155
134 1 8.51291 -6.77339 -15.1559 -0.347785 1.15987 -1.88725
135 1 15.7217 -5.26063 -15.446 0.929922 -0.365644 0.762186
136 1 18.2591 -5.45834 -14.8079 0.502203 -0.653458 1.06206
137 1 12.9973 -3.56996 -15.6981 -0.184935 -0.443461 -0.300415
138 1 12.306 -2.29607 -14.6908 -0.896356 0.677591 -0.968371
139 1 -18.8172 4.71857 -14.7042 0.53324 -0.0795927 -0.595891
140 2 -7.70361 5.36637 -14.772 -0.75377 0.501497 0.0523867
141 1 -16.717 5.83688 -15.3061 0.992612 0.447987 1.51192
142 2 4.27538 8.95188 -15.535 -0.339357 0.0699445 -0.416774
143 1 -2.81718 11.6467 -14.4754 0.318316 -0.681539 0.0301545
144 1 1.82426 12.2521 -14.7198 -0.261762 0.0149036 -1.06407
145 1 -6.97297 15.0465 -15.4053 -0.938793 -0.290782 -0.115189
146 1 -2.76614 16.3302 -14.5997 1.30856 0.383301 -1.26592
147 1 -0.55437 15.7737 -14.4472 -1.87053 -0.345697 -0.539583
148 1 -0.963187 18.4056 -15.6652 0.453589 -0.101781 -0.357124
149 1 14.2797 18.0754 -14.8811 0.351016 1.16165 -0.956564
150 1 16.3142 18.4367 -14.8924 0.523164 0.334281 -0.501416
151 1 -11.8191 18.8421 -15.2099 0.866773 -0.309852 -1.34491
152 1 -12.0573 -17.8687 -13.1786 -0.989857 1.05552 1.48344
153 1 17.606 -15.9751 -14.053 -0.392247 -0.0679516 -0.881476
154 1 13.3124 -15.0533 -13.4351 0.117059 -0.401051 -0.306883
155 1 -15.5791 -14.2595 -13.9545 -0.295791 -0.614215 0.653892
156 1 -8.6794 -12.8849 -12.8661 0.345878 -1.42584 -0.288997
157 1 -5.92378 -13.689 -13.8334 0.491356 -0.14949 1.36888
158 1 -17.9352 -11.4635 -13.2938 -0.712904 0.258702 -0.204826
159 1 -16.6578 -12.668 -13.6893 1.4275 -1.31029 -0.228619
160 1 -13.1142 -12.3624 -13.4775 1.00395 1.93431 2.00333
161 1 -2.53845 -12.7967 -12.9869 -2.27035 1.50757 1.94284
162 1 -0.910008 -11.7115 -13.3283 0.493426 0.96377 -0.225254
163 1 -17.0195 -10.8369 -13.4504 -0.211966 -0.908954 -0.322498
164 1 -14.4162 -11.0723 -13.7704 1.06477 -0.143499 -1.61136
165 1 -4.6996 -10.0808 -12.9367 1.93827 1.28604 1.25173
207 2 -3.5552 -8.6248 -12.8963 1.16757 -0.544444 -0.144325
166 1 -15.6178 -7.6048 -13.8653 0.724622 -1.02838 -1.88599
167 2 -6.48015 -4.58231 -13.5578 0.603577 -0.943877 -0.512814
168 1 -9.86781 -3.04576 -12.9726 0.809111 -0.564338 -0.213166
169 2 2.15843 -3.25383 -14.1598 -0.751669 -0.141596 1.23582
170 1 -13.8913 -2.14297 -13.413 1.00534 -0.783372 2.93884
171 2 4.8669 -2.05311 -13.3704 0.107562 0.0160855 1.12623
172 1 -13.0847 -1.28563 -12.9695 -1.85665 0.282214 -0.339192
173 1 -11.3262 1.30341 -13.5393 2.7394 0.0300247 -0.345916
174 1 -13.2062 3.64766 -13.7416 -0.603656 -0.548205 -0.14432
175 2 -6.44713 3.00904 -14.1279 -0.692498 1.2339 0.00733282
176 2 -0.610161 5.0225 -13.5471 -0.890954 1.29565 0.115815
177 1 10.3933 5.51199 -14.2435 -0.367124 -1.88069 -0.119885
178 1 16.9755 4.83734 -13.5884 -0.145878 0.719629 -0.0891444
179 1 -16.8752 5.73451 -13.0098 -0.555979 -1.85497 0.0981999
180 1 11.6531 5.77905 -13.7243 -0.0550425 -0.603685 0.983639
181 2 -3.28027 8.44727 -13.5122 1.3832 -0.0677544 -0.348963
182 1 14.3182 8.05142 -13.049 -2.51698 -0.450758 -0.286312
183 1 -6.71805 9.80702 -13.4134 -0.613127 0.158574 1.18024
184 1 -9.94483 12.3466 -13.029 1.18409 0.636949 0.676792
185 1 12.5913 12.603 -13.119 0.634194 -0.685525 -0.443814
186 1 -12.2321 15.2786 -12.8793 -0.188631 1.48925 -1.76425
187 1 -8.07524 14.3501 -13.2868 0.461625 -0.729495 0.16616
188 1 -7.03326 14.9408 -13.9677 -0.216197 -0.369289 -2.18001
189 1 -6.6064 16.6398 -13.2075 -0.275238 -0.0438466 -1.46273
190 1 1.90979 17.8132 -13.8322 2.15521 -1.09647 -1.13958
191 1 9.91784 17.6515 -13.0204 0.494522 -0.0224727 -0.914435
192 1 5.13633 19.0412 -14.0194 0.137357 0.250029 0.761988
193 1 -16.6299 -19.0809 -11.8587 -0.304925 -0.24679 -1.02714
194 1 -9.86132 -19.1475 -12.0047 -0.925213 -1.76394 0.388104
195 1 -5.70691 -18.6598 -11.6753 -0.0337377 0.682124 -0.845963
196 1 14.1073 -18.4144 -11.5054 0.19274 -0.538416 -1.43943
197 1 -12.5626 -17.1217 -12.2536 -0.321533 1.01508 -1.73493
198 1 12.5495 -14.8405 -11.9256 -0.992924 1.46372 0.917974
199 1 0.694166 -13.1595 -11.6981 -2.20566 0.0849962 1.04257
200 1 -8.49476 -11.9463 -12.216 1.38015 -0.650139 -0.323061
201 1 -6.4335 -11.888 -11.9942 -0.274998 -0.465603 0.0811515
202 1 -5.23379 -12.0412 -12.7343 -0.107717 -1.01799 0.0936084
203 1 -10.185 -10.4385 -12.8087 2.24773 -0.111787 -0.762145
204 1 9.25218 -11.0242 -12.326 -0.250804 0.627289 -0.0654859
205 1 13.7865 -11.1175 -12.0918 1.72503 0.862042 0.901076
206 1 17.0013 -10.6168 -11.5636 0.106907 0.707168 -1.16161
208 2 -0.488672 -9.87112 -11.962 -0.56262 0.0835854 -0.860946
209 1 7.73001 -9.33065 -11.8008 -0.890888 0.107092 1.46476
210 1 -17.6502 -6.19079 -12.337 0.775985 0.0703147 0.01837
211 2 -7.14105 -6.8399 -12.6757 0.0640808 1.33654 -0.703779
212 1 -10.4813 -5.03333 -12.3271 -0.211903 0.118664 -1.90806
213 1 18.9489 -5.13191 -11.9671 0.709752 -0.0540282 1.27679
214 1 -19.6349 -3.05898 -12.3415 -1.53047 -0.0257089 1.07095
215 1 -15.2559 -3.85172 -11.753 -0.2028 -0.713369 -0.98542
216 1 12.0828 -4.23945 -12.3835 1.72132 0.487101 -0.773301
217 1 -13.4088 -2.19861 -12.3975 0.38522 -0.632285 1.62382
218 1 -15.2595 -0.796476 -12.3632 -0.92539 -0.631677 -0.662331
219 1 -11.8342 -0.837954 -11.9082 1.52055 -0.908731 -1.51528
220 2 -1.1055 -0.0741535 -12.5951 -0.711762 -1.52434 0.254997
221 2 2.57631 0.016307 -11.8578 -3.12493 2.3171 1.38444
222 1 17.9818 2.66501 -12.5533 0.531301 -0.632557 0.30338
223 1 -17.7991 4.13844 -12.7985 -0.303633 -0.227803 1.64353
224 1 -19.7296 4.3466 -11.5583 -1.63801 -1.31946 0.669542
225 2 6.54396 4.30021 -12.5824 -1.38168 2.12222 0.610856
226 1 18.7097 4.42357 -12.5332 1.77126 -0.961819 1.13811
227 1 -10.6832 7.10821 -12.2754 1.55952 0.107861 0.673287
228 1 -15.7095 9.78088 -12.7667 -0.928452 1.75937 1.03573
229 1 11.8532 9.83029 -11.4483 0.184616 -0.12872 -0.0017475
230 1 12.4958 9.55374 -12.6062 0.0187583 0.958256 -0.147492
231 1 -12.2968 11.1115 -12.3967 0.225885 1.54883 0.0754539
232 1 4.00609 10.2712 -12.375 0.776205 -0.11193 1.96327
233 1 10.6053 12.4062 -12.7871 -0.680841 -0.799185 -1.05471
234 1 19.6877 11.4374 -12.3116 -0.128526 1.72281 -0.271253
235 1 -7.78841 12.9878 -12.4098 -0.559871 -1.72388 0.132629
236 1 6.26965 14.003 -12.3742 0.427498 0.929003 -0.760428
237 1 2.26658 14.3695 -12.0947 -0.82644 0.574965 1.098
238 1 -18.2913 18.4178 -12.4935 -0.0312974 0.755161 -0.577649
239 1 7.74123 18.2963 -12.2215 0.33872 1.56506 1.09898
240 1 16.9105 17.8301 -12.6748 0.334151 -1.24968 -0.0758245
241 1 -2.77392 18.7605 -12.0838 -0.401725 0.792694 -0.615845
242 1 -3.67238 -18.9854 -11.2285 -0.579267 0.37 0.51988
243 1 3.37135 -17.7028 -11.1289 -0.28617 -0.358898 0.230985
247 1 15.2363 -15.7241 -10.3688 3.11924 0.141137 -0.172104
244 1 16.9953 -15.9245 -11.297 0.495379 1.38179 0.163782
245 1 19.5185 -16.4354 -10.9331 -0.328825 0.25929 0.933677
246 1 -8.40454 -15.1348 -11.3622 -1.14734 -1.07792 -0.44608
248 1 14.5814 -14.9883 -10.9237 -1.26768 0.41639 -1.27114
249 1 17.5059 -14.4759 -10.8303 -0.564844 -0.54314 1.67345
250 1 4.74019 -11.6934 -11.2855 0.724901 1.30341 0.0135724
251 1 18.4683 -11.7847 -11.0956 -1.3826 -0.658301 1.61139
252 1 -10.7503 -9.82809 -10.9761 1.63752 -0.321626 -0.415112
253 2 -2.60366 -9.36544 -10.695 0.994188 1.10468 1.49547
254 1 -13.8592 -7.22942 -10.0303 0.0590852 0.385613 0.815344
255 1 10.8001 -2.93747 -10.0178 -0.636292 -1.02178 0.649178
256 1 15.9407 -4.14413 -10.3915 -0.278126 2.08808 1.50687
257 2 -8.86866 -2.47455 -10.7185 0.570262 1.32098 0.429118
258 2 6.52331 -2.76702 -10.5193 2.41067 0.223347 0.17839
259 1 -16.5396 -0.296224 -10.8799 -0.0782059 -0.235168 0.517939
260 1 -10.0471 -0.354393 -11.2371 -0.977316 1.60693 0.450944
261 2 9.68176 1.29912 -11.3604 0.24623 -0.0417333 -0.0946935
262 1 -14.2249 1.46543 -10.5789 0.0915392 -0.0805947 1.71451
263 2 -5.17153 2.10715 -10.3704 -0.612571 1.32315 1.37017
264 1 -18.2141 3.53973 -10.7535 0.14984 0.877616 -0.60411
265 1 12.3236 2.8744 -10.02 0.397541 -0.165777 0.339638
266 2 1.01082 5.38389 -11.2175 1.24074 0.447382 0.37953
267 1 9.76294 5.79694 -10.8456 0.136479 -0.340006 -1.3768
268 1 15.1986 9.07845 -11.2661 1.50623 0.940786 -0.850904
269 1 -18.6177 12.7631 -10.5592 -1.37616 -0.459729 0.916009
270 1 -16.0721 12.746 -10.9761 -2.17967 -1.51736 -0.402
271 1 -11.4773 12.0918 -11.1844 0.442215 -0.818746 0.152039
272 1 12.6095 11.8242 -11.0193 -0.783456 2.00567 0.0645102
273 1 -15.1872 13.4846 -10.1848 -0.465601 -0.0677313 0.0847698
274 1 -16.8261 15.4106 -10.0588 -0.278597 0.645161 -1.05824
275 1 14.9352 15.6047 -11.2164 1.36275 1.36764 -1.65643
276 1 15.8254 17.8872 -10.1066 1.24535 0.433128 -0.281668
277 1 -19.3193 -19.3568 -8.95873 -0.292739 -0.289341 -1.75247
278 1 18.7065 -17.4114 -9.42994 -0.512479 -0.117238 0.947245
279 1 -8.12923 -17.0923 -9.8185 0.587143 0.264888 -0.309377
280 1 -7.36921 -16.6807 -9.08943 0.190774 -2.02782 0.885973
281 1 -15.1388 -15.158 -9.32216 -1.2915 -0.718051 -1.716
282 1 4.93401 -14.3725 -8.96406 -1.51179 -1.61178 2.26353
283 1 -16.0032 -11.3 -9.50387 -0.576123 2.11229 1.06793
284 1 13.8333 -11.1924 -9.43936 -0.196614 0.129978 -0.68523
285 1 -15.0817 -9.16849 -9.67618 -0.235842 -1.32324 0.608055
286 1 -17.5794 -7.15534 -8.98425 -0.182694 0.748652 -0.581988
287 2 3.35172 -7.85208 -8.92458 -1.3825 1.2984 0.831996
288 1 -10.3746 -6.72159 -9.73381 -0.535869 0.278378 -1.07369
289 1 -15.9075 -4.97378 -9.6993 0.180394 1.46302 -0.694625
290 1 -16.1693 -4.89022 -8.6005 0.432577 -1.83676 -0.572393
291 1 -13.8124 -5.60914 -8.97578 0.36114 0.887901 -1.36861
292 2 8.37479 -4.88038 -9.12351 0.629432 -0.102796 0.699225
293 2 -3.68435 -2.89906 -8.89371 -0.251203 -0.338375 -1.00432
294 1 -17.8142 -2.82798 -9.79581 -0.468837 -0.547357 -0.549072
295 2 -9.43183 -0.720194 -8.59849 1.25502 0.346597 -0.0480278
296 2 -1.08767 -0.394179 -9.91903 -0.160577 -1.99594 2.09062
297 1 15.2745 -1.19289 -8.82281 -0.758564 -1.19037 -0.824238
298 1 18.6162 2.75069 -9.08784 -1.40865 -0.800924 -0.767929
299 1 -18.7251 3.03033 -8.87906 2.25661 -1.09677 0.768143
300 1 -14.1296 3.93112 -9.59646 1.13438 1.11529 2.53959
301 1 -19.4365 5.17938 -9.38701 -0.0145401 1.69978 -0.271451
302 1 14.7656 5.64708 -9.47771 -0.412003 1.11713 -1.93982
303 2 -7.77735 6.03294 -8.82596 0.34383 0.377368 0.00260637
304 2 0.415679 6.78145 -9.19236 -0.578807 0.588464 -0.25177
305 1 -11.3233 9.22177 -9.75459 -0.139814 0.103056 0.513651
306 2 0.0711728 9.26562 -8.87704 2.16393 -0.4616 -1.38728
307 1 9.13011 9.68348 -9.78706 -1.27312 -0.324819 1.29875
308 1 -1.31823 10.1292 -9.85416 1.53821 -0.176239 -1.15558
309 1 19.1736 11.1924 -9.71975 -1.69499 0.732617 -1.5419
310 1 -10.6163 12.3301 -8.8146 -0.524258 1.40303 -0.835601
311 1 -0.908944 11.916 -9.21449 1.22942 -0.224528 -0.610638
312 1 9.1755 12.3189 -9.98896 -0.0987871 0.71811 -0.0511863
313 1 12.7 12.7112 -9.45459 0.573271 0.934915 0.410952
314 1 15.3135 13.6604 -9.5676 1.11444 -0.978606 0.266186
315 1 5.27488 14.8481 -8.75028 -1.1822 0.57877 0.726672
316 1 -17.8359 16.6749 -8.75006 -0.213389 -0.963396 0.974321
317 1 -14.6975 18.5346 -8.87749 -0.328353 1.40511 0.221626
318 1 -11.8154 18.4108 -8.98025 0.521229 0.0629483 -1.31284
319 1 -5.16335 19.527 -9.72442 -1.44123 -0.395306 -1.33643
320 1 -0.927006 19.8174 -8.91379 0.163486 2.56893 -1.25142
322 1 9.99729 18.727 -9.03347 1.24823 -1.69305 -2.18257
321 1 10.9296 18.8967 -9.64794 0.216805 0.15475 0.204427
323 1 14.7625 -18.6085 -7.67888 -0.0780276 -1.64761 1.15317
324 1 -9.7465 -17.9332 -8.38689 0.903027 1.51895 1.1198
325 1 -2.60237 -18.0739 -8.4644 0.3228 -0.804181 0.211029
326 1 10.4829 -17.2929 -7.80476 0.9565 0.892105 0.884903
327 1 19.0366 -17.8979 -7.16469 0.907176 2.19945 -0.521796
328 1 9.33072 -15.868 -7.91997 1.11838 0.744204 -0.266757
329 1 -15.7478 -14.9138 -7.64039 1.65308 0.504344 0.919289
330 1 3.12526 -13.4836 -8.32754 -0.783841 -1.19939 1.23619
331 1 -4.85391 -12.2875 -7.16925 0.981729 0.011478 -0.347218
332 1 19.0485 -12.6928 -8.45142 0.209658 -2.60626 -0.565378
333 1 -11.5914 -11.305 -7.59794 0.113543 1.13045 0.435847
334 1 -13.5479 -9.89138 -8.1705 -0.0454041 0.7342 1.59766
335 1 2.64592 -9.72346 -7.6209 2.24441 0.458205 -0.313392
336 1 13.5041 -9.72849 -8.47012 -1.15685 -1.32463 0.56227
337 1 16.5997 -9.85817 -7.39669 -0.296855 -0.704686 1.3322
338 1 -19.1306 -7.52714 -8.10061 -1.60698 -0.227975 1.03947
339 1 -13.8114 -7.2121 -7.88598 -0.0868003 -0.577107 0.805718
340 1 10.588 -7.60448 -8.53806 -0.572135 0.768024 0.484866
341 1 18.8907 -7.31884 -7.73712 -1.31046 0.695551 0.697899
342 1 -18.1821 -6.34514 -8.46949 -0.119399 1.32994 -1.63941
343 1 -19.8212 -4.82589 -7.6181 -0.475989 0.705647 -0.845832
344 1 -8.87517 -5.0531 -7.48585 1.1497 -0.552302 0.307874
345 1 11.4877 -5.39581 -7.43473 -0.0337386 0.658655 -1.645
347 1 -15.4321 -2.21877 -7.41172 -1.71406 -1.62068 1.39876
348 2 -7.13044 -1.32585 -7.18415 0.0619095 -0.621588 -0.558777
349 1 18.5327 -0.336056 -8.08674 -0.573669 1.02625 -1.53641
350 1 -12.4203 0.731381 -7.27265 1.5612 1.38235 0.0423777
351 2 1.19595 0.271092 -7.49828 0.972929 -0.627541 1.01072
352 2 -6.69946 2.24406 -8.33062 0.854921 0.584335 -0.129916
353 1 -13.7294 9.49556 -8.06109 0.377867 -0.578719 0.595542
354 1 -2.49337 9.81694 -7.73996 -0.0285865 -0.416174 -1.09937
355 1 -18.9463 10.1072 -7.71809 0.849734 1.22027 -0.371122
356 1 9.19933 13.5026 -8.26396 0.75721 0.0404468 -0.229025
357 1 -7.92195 15.8572 -7.43155 -0.495847 1.24625 0.399044
358 1 -1.53171 16.5879 -7.40456 0.643851 -1.28051 0.579008
359 1 7.21239 18.6275 -8.38274 1.51002 -0.621487 -1.49515
360 1 -19.4816 -19.0801 -5.81062 0.166735 -0.143021 -2.30827
361 1 7.45439 -19.2397 -6.83295 -0.358311 0.132553 -0.727134
362 1 7.60875 -19.7045 -5.82657 0.0493999 0.690989 -2.03836
363 1 16.2676 -19.0148 -7.04082 -0.575516 0.552181 0.354796
364 1 -4.97757 -17.9476 -5.96151 0.501517 -0.515456 0.0408471
365 1 18.0963 -15.1774 -6.46034 0.993869 -0.074433 1.53679
366 1 -17.9482 -14.0846 -6.12402 0.667613 0.454193 -0.445672
367 1 9.74038 -13.4138 -6.03303 1.51309 -0.188399 -0.0390916
368 1 12.118 -13.5852 -7.0814 0.182817 0.540865 -0.254214
369 1 14.4266 -12.1858 -6.42562 0.546196 -0.00833756 -0.352979
370 1 -15.5593 -10.8087 -6.74287 2.19437 -1.77642 -1.57781
371 1 -6.12144 -10.4086 -6.85745 0.842493 -0.253338 -0.99855
372 1 -14.2227 -9.48815 -6.14468 -0.742356 1.50866 0.672306
373 1 -9.83674 -8.94402 -6.58143 -0.978067 -0.17075 -1.0322
374 2 3.12565 -7.1841 -6.42602 0.538782 -0.811806 0.414772
375 1 6.83801 -7.72483 -6.55931 -0.346761 -0.654904 -0.109355
376 1 6.40313 -8.40965 -5.77289 0.0637747 2.22982 -0.216135
377 1 16.9668 -6.39793 -6.57469 -0.208306 1.31414 0.399477
380 2 0.994795 -4.59461 -6.22953 0.881909 0.84569 0.455131
378 1 -18.9725 -3.90278 -6.22098 0.832123 -0.539069 0.837358
379 1 -12.7884 -3.30561 -6.10907 -0.117853 -0.286033 0.0287804
346 1 -14.3853 -2.07842 -7.01161 -0.236853 -0.813597 -0.359564
381 1 -11.722 -0.541767 -5.87925 -1.55657 1.82483 1.5764
382 1 10.1672 -0.166969 -6.24785 0.172235 0.575341 -0.215454
383 1 -14.8366 0.0839581 -6.65789 0.180524 0.0959679 2.0001
384 2 5.77284 4.09334 -6.49587 0.0872196 0.549372 -0.000314378
385 1 15.0854 4.03966 -6.33824 -0.578106 0.131384 0.405786
386 1 -19.0368 5.6715 -6.42817 0.413838 0.0350962 -0.390256
387 1 11.4861 6.57545 -6.34616 -0.957677 -1.4063 -0.37684
388 1 9.89163 8.7055 -6.73091 -0.866937 -0.98053 -1.68047
389 1 14.8394 8.99314 -6.95217 -0.771418 0.623579 0.96655
390 1 14.4523 9.97764 -6.55117 -0.0913015 -0.127673 -0.733935
391 1 -15.4111 11.1073 -6.37609 -0.601179 -0.127088 -0.817371
392 1 3.849 10.2048 -7.09572 -0.0333191 1.20954 2.20069
393 1 12.8425 10.0403 -5.85555 1.53232 -0.789755 1.34963
394 1 -19.8032 13.9932 -6.49822 0.597885 -0.878396 0.756638
395 1 6.303 14.515 -6.44788 1.70308 0.0855717 0.566476
396 1 -17.0609 16.2998 -6.415 -2.81539 -1.90151 -1.48802
397 1 -15.5665 16.6263 -6.66751 -1.43941 0.818238 -1.24365
398 1 10.4558 19.1111 -5.92793 -0.156191 -0.221864 -1.56476
399 1 -7.11251 -19.8825 -5.47497 1.14749 -0.0153385 0.0219769
400 1 -9.36621 -17.9595 -5.08282 1.41361 -0.156767 0.557518
401 1 -0.886363 -17.1074 -4.39454 -0.632095 -0.469135 -0.373355
402 1 -13.308 -15.6499 -4.46972 -0.931232 -0.945002 -0.0612481
403 1 -3.7484 -14.8865 -5.41534 -0.0575915 -0.558146 -0.345208
404 1 2.0221 -14.6347 -4.76373 1.67917 0.84538 -1.23838
405 1 -18.2264 -11.9933 -4.79787 -1.54081 0.474148 1.19039
406 1 -9.48959 -8.81834 -5.46639 -1.35479 1.86189 -0.038026
407 1 16.8328 -9.63683 -5.07036 0.0821006 0.974128 0.559123
408 1 19.9625 -9.83427 -4.51559 0.429057 -0.345244 -1.1131
409 1 -14.9888 -8.1902 -5.44001 -0.583892 -0.373149 -0.203607
410 2 0.0996289 -7.80302 -4.63259 -0.232363 1.27321 -0.658245
411 1 12.7041 -7.28326 -5.01372 0.415842 1.10555 -0.415005
412 1 -10.2806 -5.88524 -4.57319 0.33164 1.67507 -0.94265
413 1 -11.0142 -6.71841 -4.36074 0.213752 -1.03226 1.23411
414 2 -2.27407 -6.97863 -4.79584 -1.01762 1.98401 -1.32596
415 1 -15.8803 -5.47263 -5.06179 -0.107604 -1.65923 0.785245
416 1 -16.7364 -3.14438 -4.96284 0.712201 1.23819 0.21036
417 1 -16.3776 -4.09121 -5.45838 0.42682 0.294492 0.519474
418 1 -15.5477 -3.41402 -5.17085 0.165443 -1.15508 0.757182
419 2 1.86427 -3.03586 -4.46161 -0.104085 0.639676 0.528819
420 2 8.03689 -4.0461 -5.67781 -0.837838 0.429582 0.949652
421 1 -15.092 -2.41609 -5.45107 0.398574 0.71139 -0.18248
422 2 -6.89727 -2.38368 -4.86253 -1.54495 -1.42512 1.15251
423 1 -16.5807 -1.03721 -4.5224 1.24515 -0.47776 -0.195806
424 2 -4.83138 -0.965213 -4.6835 0.645345 0.741425 -0.770144
425 1 -19.6679 2.22737 -4.55133 0.444531 -0.451404 -0.00591041
426 1 -16.2217 1.53479 -4.77419 0.700938 -0.40578 -0.351104
427 1 -14.1594 5.33404 -4.40198 -0.780726 -0.178324 -0.0742751
428 1 9.07149 5.59958 -5.05354 -0.868585 -0.0983913 -0.228586
429 1 16.1968 5.5049 -5.4429 1.87323 0.545089 -0.173596
430 1 -18.7841 6.23448 -4.44251 -1.69524 -0.0298734 -0.75155
431 1 16.0529 6.99406 -4.75151 -0.00878308 -1.5728 -1.24654
432 2 -3.68374 7.40389 -5.68207 0.225403 0.923134 0.771969
433 1 17.763 7.55961 -4.70112 0.825895 -0.901259 1.21907
434 1 -16.9325 11.6301 -5.08956 -0.626219 1.64392 0.115974
435 1 -6.94874 12.5802 -5.00965 -0.675207 0.142514 -1.38961
436 1 14.4019 12.1345 -5.61391 -0.877623 -0.36319 -0.220549
437 1 -18.5792 13.6612 -5.11635 0.394778 -0.13208 -0.401589
438 1 -11.461 15.053 -4.70076 0.292661 0.245567 -0.186095
439 1 8.11259 16.0116 -4.80668 0.0626063 -0.221907 0.193453
440 1 8.115 17.609 -4.94791 -1.49175 0.616208 1.10872
441 1 11.12 18.7311 -4.73307 0.858267 0.595537 -1.41482
442 1 10.1629 19.2767 -4.57135 1.52982 -1.00538 0.890648
443 1 12.2381 18.7168 -4.77817 -1.88086 -0.691426 0.182886
444 1 16.0682 18.7562 -5.26287 0.0650666 0.866798 0.60933
445 1 -17.9857 -18.6872 -3.52412 1.14852 -0.723117 0.0129533
446 1 7.98612 -19.8777 -3.82645 -1.61888 -0.48935 0.0751293
447 1 13.2027 -19.107 -4.07136 0.36341 0.192003 0.538271
448 1 18.5672 -18.7445 -3.54281 0.50198 -1.72586 -0.346932
449 1 -10.7615 -16.1258 -3.86806 0.533456 0.500403 0.40038
450 1 -13.23 -14.7474 -3.67127 0.994883 0.202591 -0.930772
451 1 -10.9679 -14.6342 -4.04806 0.666227 1.18114 -0.361478
452 1 -9.46569 -15.4291 -2.86735 2.15066 1.3109 3.11185
453 1 -5.27101 -14.3543 -4.212 -0.320696 0.296275 0.326586
454 1 12.3274 -14.1086 -3.53446 0.683112 1.11251 -0.451268
455 1 6.44469 -11.9556 -3.68443 0.154025 0.606526 0.17191
456 1 2.97411 -10.8938 -3.75776 0.985874 0.629477 -1.18244
457 1 2.97178 -9.71758 -3.98391 0.829352 -1.06342 1.27314
458 1 10.0214 -9.8866 -4.11559 0.338835 0.534841 0.358205
459 1 14.2301 -8.84186 -3.81867 -0.764245 0.391074 0.0629688
460 1 -17.5955 -7.91121 -3.71553 -1.09178 -1.65353 0.48166
461 1 -11.6474 -8.11462 -3.05783 0.989051 0.652545 0.464381
462 2 2.32584 -8.02402 -3.49466 -0.302398 0.0582076 -0.769012
463 1 -19.9582 -4.6763 -4.10421 -0.733753 0.325764 1.62604
464 2 -1.60682 -5.42783 -2.89611 1.16435 0.297319 0.102228
465 1 -18.8444 -2.46882 -3.98214 0.214501 0.0526386 -0.409356
466 2 -8.8966 -1.57838 -3.51849 1.47772 -1.06891 -2.41518
467 2 -5.3643 2.20612 -3.32851 -1.09154 0.989692 0.949248
468 1 -11.545 2.89859 -3.381 -0.513219 -1.04202 0.112089
469 1 -14.1718 4.76249 -3.21393 -0.56567 -2.08688 -0.0880888
470 2 -1.61692 4.39448 -4.02891 1.13688 -0.470705 2.43544
471 1 10.1013 5.44804 -3.36866 0.243006 0.304846 0.609066
472 1 -18.0897 6.77399 -3.58277 -0.510444 -1.44811 -0.776272
473 1 -12.5036 6.42381 -3.81653 1.89315 0.0134672 -1.12336
474 1 11.957 5.76838 -3.04728 -0.521956 -1.63844 0.0564978
475 1 -14.9909 8.59379 -4.20396 1.03674 -1.76739 0.778235
476 1 3.6895 9.4054 -3.38862 0.22013 -0.422117 -0.936767
477 1 -16.2104 11.1927 -4.25102 0.373939 0.0650797 -0.818772
478 1 -3.14945 10.3303 -2.91444 -1.15473 0.747456 -0.640333
479 1 -14.1313 14.9864 -3.69062 0.00773539 -0.298743 0.694303
480 1 -1.25553 15.4237 -3.72032 1.64209 -0.960991 0.536232
481 1 -8.84627 17.0631 -3.02849 -1.17328 -0.629162 -1.38653
482 1 -3.49234 16.3761 -3.96998 1.5726 -0.841626 -0.613287
483 1 0.106028 16.2317 -3.86041 -0.282638 -1.35253 -0.166089
484 1 7.96315 15.9386 -3.68602 -1.07082 0.907478 -0.0230274
485 1 8.16404 17.0787 -3.70656 -1.21735 0.109249 -0.0838215
486 1 -10.9869 18.3375 -3.96837 0.136821 -0.360252 1.38624
487 1 0.661697 17.2303 -3.93161 -0.66897 0.772025 -0.0327287
488 1 -17.697 19.5888 -3.81167 -0.0831499 1.13454 -2.89845
489 1 3.94238 19.6392 -3.97891 -1.52459 1.40924 2.83762
490 1 10.9819 18.843 -3.63494 0.69397 0.722866 0.436698
491 1 -12.0604 -19.6562 -2.40798 -0.0213898 0.417283 0.437861
492 1 -1.9622 -18.7709 -2.64552 0.897145 -0.648091 -0.581978
493 1 18.2053 -17.4724 -1.56374 0.569803 -0.533745 -0.671626
494 1 10.9992 -16.6813 -1.81284 1.30509 -0.347743 0.436297
495 1 -18.3088 -15.069 -1.74322 0.936115 -0.660049 -1.53685
497 1 -13.4203 -14.5875 -2.32209 0.702739 0.170076 -0.405178
498 1 2.78607 -14.594 -1.6369 0.243098 0.0715494 -0.266302
496 1 -18.547 -14.2281 -2.4594 -0.789724 -1.2819 -0.238319
499 1 -9.69696 -13.3935 -2.49895 0.189188 -0.464686 -1.52927
500 1 5.93572 -13.3559 -1.97824 0.863153 -0.189518 0.0720816
501 1 -2.71733 -11.9229 -1.79992 -0.26639 0.272888 0.109518
502 1 7.49339 -12.4469 -1.90618 0.102674 -0.732331 -0.687577